
     Program PHONON v.7.5 starts on  5Jun2026 at  8:47:15 

     This program is part of the open-source Quantum ESPRESSO suite
     for quantum simulation of materials; please cite
         "P. Giannozzi et al., J. Phys.:Condens. Matter 21 395502 (2009);
         "P. Giannozzi et al., J. Phys.:Condens. Matter 29 465901 (2017);
         "P. Giannozzi et al., J. Chem. Phys. 152 154105 (2020);
          URL http://www.quantum-espresso.org", 
     in publications or presentations arising from this work. More details at
     http://www.quantum-espresso.org/quote

     Parallel version (MPI & OpenMP), running on      36 processor cores
     Number of MPI processes:                 6
     Threads/MPI process:                     6

     MPI processes distributed on     1 nodes
     15401 MiB available memory on the printing compute node when the environment starts

     Reading input from graphene_ph.in
      Title line not specified: using 'default'.

     Reading xml data from directory:

     ./temp/graphene.save/

     R & G space division:  proc/nbgrp/npool/nimage =       6
     Subspace diagonalization in iterative solution of the eigenvalue problem:
     a serial algorithm will be used


     IMPORTANT: XC functional enforced from input :
     Exchange-correlation= PBE
                           (   1   4   3   4   0   0   0)
     Any further DFT definition will be discarded
     Please, verify this is what you really want


     Parallelization info
     --------------------
     sticks:   dense  smooth     PW     G-vecs:    dense   smooth      PW
     Min          99      40     14                 5903     1494     320
     Max         100      41     15                 5912     1501     329
     Sum         595     241     85                35435     8973    1929

     Using Slab Decomposition


     Check: negative core charge=   -0.000004

     negative rho (up, down):  9.554E-06 0.000E+00

     Adding external electric field

     Computed dipole along edir(3) : 
        Dipole               -0.0006 Ry au,         -0.0015 Debye
        Dipole field         -0.0000 Ry au, 

        E field amplitude [Ha a.u.]:  5.8820E-05
        Potential amp.        0.0023 Ry
        Total length         13.1243 bohr

     Reading collected, re-writing distributed wavefunctions in ./temp/


     Dynamical matrices for ( 6, 6, 6)  uniform grid of q-points
     ( 112 q-points):
       N         xq(1)         xq(2)         xq(3) 
       1   0.000000000   0.000000000   0.000000000
       2   0.000000000   0.000000000   0.055555556
       3   0.000000000   0.000000000   0.111111111
       4   0.000000000   0.000000000  -0.166666667
       5   0.000000000   0.192450090   0.000000000
       6   0.000000000   0.192450090   0.055555556
       7   0.000000000   0.192450090   0.111111111
       8   0.000000000   0.192450090  -0.166666667
       9   0.000000000   0.192450090  -0.111111111
      10   0.000000000   0.192450090  -0.055555556
      11   0.000000000   0.384900179   0.000000000
      12   0.000000000   0.384900179   0.055555556
      13   0.000000000   0.384900179   0.111111111
      14   0.000000000   0.384900179  -0.166666667
      15   0.000000000   0.384900179  -0.111111111
      16   0.000000000   0.384900179  -0.055555556
      17   0.000000000  -0.577350269   0.000000000
      18   0.000000000  -0.577350269   0.055555556
      19   0.000000000  -0.577350269   0.111111111
      20   0.000000000  -0.577350269  -0.166666667
      21   0.166666667   0.096225045   0.000000000
      22   0.166666667   0.096225045   0.055555556
      23   0.166666667   0.096225045   0.111111111
      24   0.166666667   0.096225045  -0.166666667
      25   0.166666667   0.096225045  -0.111111111
      26   0.166666667   0.096225045  -0.055555556
      27   0.166666667   0.288675135   0.000000000
      28   0.166666667   0.288675135   0.055555556
      29   0.166666667   0.288675135   0.111111111
      30   0.166666667   0.288675135  -0.166666667
      31   0.166666667   0.288675135  -0.111111111
      32   0.166666667   0.288675135  -0.055555556
      33   0.166666667   0.481125224   0.000000000
      34   0.166666667   0.481125224   0.055555556
      35   0.166666667   0.481125224   0.111111111
      36   0.166666667   0.481125224  -0.166666667
      37   0.166666667   0.481125224  -0.111111111
      38   0.166666667   0.481125224  -0.055555556
      39   0.166666667  -0.481125224   0.000000000
      40   0.166666667  -0.481125224   0.055555556
      41   0.166666667  -0.481125224   0.111111111
      42   0.166666667  -0.481125224  -0.166666667
      43   0.166666667  -0.481125224  -0.111111111
      44   0.166666667  -0.481125224  -0.055555556
      45   0.166666667  -0.288675135   0.000000000
      46   0.166666667  -0.288675135   0.055555556
      47   0.166666667  -0.288675135   0.111111111
      48   0.166666667  -0.288675135  -0.166666667
      49   0.166666667  -0.288675135  -0.111111111
      50   0.166666667  -0.288675135  -0.055555556
      51   0.166666667  -0.096225045   0.000000000
      52   0.166666667  -0.096225045   0.055555556
      53   0.166666667  -0.096225045   0.111111111
      54   0.166666667  -0.096225045  -0.166666667
      55   0.166666667  -0.096225045  -0.111111111
      56   0.166666667  -0.096225045  -0.055555556
      57   0.333333333   0.192450090   0.000000000
      58   0.333333333   0.192450090   0.055555556
      59   0.333333333   0.192450090   0.111111111
      60   0.333333333   0.192450090  -0.166666667
      61   0.333333333   0.192450090  -0.111111111
      62   0.333333333   0.192450090  -0.055555556
      63   0.333333333   0.384900179   0.000000000
      64   0.333333333   0.384900179   0.055555556
      65   0.333333333   0.384900179   0.111111111
      66   0.333333333   0.384900179  -0.166666667
      67   0.333333333   0.384900179  -0.111111111
      68   0.333333333   0.384900179  -0.055555556
      69   0.333333333   0.577350269   0.000000000
      70   0.333333333   0.577350269   0.055555556
      71   0.333333333   0.577350269   0.111111111
      72   0.333333333   0.577350269  -0.166666667
      73   0.333333333   0.577350269  -0.111111111
      74   0.333333333   0.577350269  -0.055555556
      75   0.333333333  -0.384900179   0.000000000
      76   0.333333333  -0.384900179   0.055555556
      77   0.333333333  -0.384900179   0.111111111
      78   0.333333333  -0.384900179  -0.166666667
      79   0.333333333  -0.384900179  -0.111111111
      80   0.333333333  -0.384900179  -0.055555556
      81   0.333333333  -0.192450090   0.000000000
      82   0.333333333  -0.192450090   0.055555556
      83   0.333333333  -0.192450090   0.111111111
      84   0.333333333  -0.192450090  -0.166666667
      85   0.333333333  -0.192450090  -0.111111111
      86   0.333333333  -0.192450090  -0.055555556
      87   0.333333333   0.000000000   0.000000000
      88   0.333333333   0.000000000   0.055555556
      89   0.333333333   0.000000000   0.111111111
      90   0.333333333   0.000000000  -0.166666667
      91   0.333333333   0.000000000  -0.111111111
      92   0.333333333   0.000000000  -0.055555556
      93  -0.500000000  -0.288675135   0.000000000
      94  -0.500000000  -0.288675135   0.055555556
      95  -0.500000000  -0.288675135   0.111111111
      96  -0.500000000  -0.288675135  -0.166666667
      97  -0.500000000  -0.096225045   0.000000000
      98  -0.500000000  -0.096225045   0.055555556
      99  -0.500000000  -0.096225045   0.111111111
     100  -0.500000000  -0.096225045  -0.166666667
     101  -0.500000000  -0.096225045  -0.111111111
     102  -0.500000000  -0.096225045  -0.055555556
     103  -0.500000000   0.096225045   0.000000000
     104  -0.500000000   0.096225045   0.055555556
     105  -0.500000000   0.096225045   0.111111111
     106  -0.500000000   0.096225045  -0.166666667
     107  -0.500000000   0.096225045  -0.111111111
     108  -0.500000000   0.096225045  -0.055555556
     109  -0.500000000  -0.866025404   0.000000000
     110  -0.500000000  -0.866025404   0.055555556
     111  -0.500000000  -0.866025404   0.111111111
     112  -0.500000000  -0.866025404  -0.166666667

     Number and degeneracy of irreps per q-point
       N         xq(1)         xq(2)         xq(3)   N irreps
       1   0.000000000   0.000000000   0.000000000       6
     No degeneracy
       2   0.000000000   0.000000000   0.055555556       6
     No degeneracy
       3   0.000000000   0.000000000   0.111111111       6
     No degeneracy
       4   0.000000000   0.000000000  -0.166666667       6
     No degeneracy
       5   0.000000000   0.192450090   0.000000000       6
     No degeneracy
       6   0.000000000   0.192450090   0.055555556       6
     No degeneracy
       7   0.000000000   0.192450090   0.111111111       6
     No degeneracy
       8   0.000000000   0.192450090  -0.166666667       6
     No degeneracy
       9   0.000000000   0.192450090  -0.111111111       6
     No degeneracy
      10   0.000000000   0.192450090  -0.055555556       6
     No degeneracy
      11   0.000000000   0.384900179   0.000000000       6
     No degeneracy
      12   0.000000000   0.384900179   0.055555556       6
     No degeneracy
      13   0.000000000   0.384900179   0.111111111       6
     No degeneracy
      14   0.000000000   0.384900179  -0.166666667       6
     No degeneracy
      15   0.000000000   0.384900179  -0.111111111       6
     No degeneracy
      16   0.000000000   0.384900179  -0.055555556       6
     No degeneracy
      17   0.000000000  -0.577350269   0.000000000       6
     No degeneracy
      18   0.000000000  -0.577350269   0.055555556       6
     No degeneracy
      19   0.000000000  -0.577350269   0.111111111       6
     No degeneracy
      20   0.000000000  -0.577350269  -0.166666667       6
     No degeneracy
      21   0.166666667   0.096225045   0.000000000       6
     No degeneracy
      22   0.166666667   0.096225045   0.055555556       6
     No degeneracy
      23   0.166666667   0.096225045   0.111111111       6
     No degeneracy
      24   0.166666667   0.096225045  -0.166666667       6
     No degeneracy
      25   0.166666667   0.096225045  -0.111111111       6
     No degeneracy
      26   0.166666667   0.096225045  -0.055555556       6
     No degeneracy
      27   0.166666667   0.288675135   0.000000000       6
     No degeneracy
      28   0.166666667   0.288675135   0.055555556       6
     No degeneracy
      29   0.166666667   0.288675135   0.111111111       6
     No degeneracy
      30   0.166666667   0.288675135  -0.166666667       6
     No degeneracy
      31   0.166666667   0.288675135  -0.111111111       6
     No degeneracy
      32   0.166666667   0.288675135  -0.055555556       6
     No degeneracy
      33   0.166666667   0.481125224   0.000000000       6
     No degeneracy
      34   0.166666667   0.481125224   0.055555556       6
     No degeneracy
      35   0.166666667   0.481125224   0.111111111       6
     No degeneracy
      36   0.166666667   0.481125224  -0.166666667       6
     No degeneracy
      37   0.166666667   0.481125224  -0.111111111       6
     No degeneracy
      38   0.166666667   0.481125224  -0.055555556       6
     No degeneracy
      39   0.166666667  -0.481125224   0.000000000       6
     No degeneracy
      40   0.166666667  -0.481125224   0.055555556       6
     No degeneracy
      41   0.166666667  -0.481125224   0.111111111       6
     No degeneracy
      42   0.166666667  -0.481125224  -0.166666667       6
     No degeneracy
      43   0.166666667  -0.481125224  -0.111111111       6
     No degeneracy
      44   0.166666667  -0.481125224  -0.055555556       6
     No degeneracy
      45   0.166666667  -0.288675135   0.000000000       6
     No degeneracy
      46   0.166666667  -0.288675135   0.055555556       6
     No degeneracy
      47   0.166666667  -0.288675135   0.111111111       6
     No degeneracy
      48   0.166666667  -0.288675135  -0.166666667       6
     No degeneracy
      49   0.166666667  -0.288675135  -0.111111111       6
     No degeneracy
      50   0.166666667  -0.288675135  -0.055555556       6
     No degeneracy
      51   0.166666667  -0.096225045   0.000000000       6
     No degeneracy
      52   0.166666667  -0.096225045   0.055555556       6
     No degeneracy
      53   0.166666667  -0.096225045   0.111111111       6
     No degeneracy
      54   0.166666667  -0.096225045  -0.166666667       6
     No degeneracy
      55   0.166666667  -0.096225045  -0.111111111       6
     No degeneracy
      56   0.166666667  -0.096225045  -0.055555556       6
     No degeneracy
      57   0.333333333   0.192450090   0.000000000       6
     No degeneracy
      58   0.333333333   0.192450090   0.055555556       6
     No degeneracy
      59   0.333333333   0.192450090   0.111111111       6
     No degeneracy
      60   0.333333333   0.192450090  -0.166666667       6
     No degeneracy
      61   0.333333333   0.192450090  -0.111111111       6
     No degeneracy
      62   0.333333333   0.192450090  -0.055555556       6
     No degeneracy
      63   0.333333333   0.384900179   0.000000000       6
     No degeneracy
      64   0.333333333   0.384900179   0.055555556       6
     No degeneracy
      65   0.333333333   0.384900179   0.111111111       6
     No degeneracy
      66   0.333333333   0.384900179  -0.166666667       6
     No degeneracy
      67   0.333333333   0.384900179  -0.111111111       6
     No degeneracy
      68   0.333333333   0.384900179  -0.055555556       6
     No degeneracy
      69   0.333333333   0.577350269   0.000000000       6
     No degeneracy
      70   0.333333333   0.577350269   0.055555556       6
     No degeneracy
      71   0.333333333   0.577350269   0.111111111       6
     No degeneracy
      72   0.333333333   0.577350269  -0.166666667       6
     No degeneracy
      73   0.333333333   0.577350269  -0.111111111       6
     No degeneracy
      74   0.333333333   0.577350269  -0.055555556       6
     No degeneracy
      75   0.333333333  -0.384900179   0.000000000       6
     No degeneracy
      76   0.333333333  -0.384900179   0.055555556       6
     No degeneracy
      77   0.333333333  -0.384900179   0.111111111       6
     No degeneracy
      78   0.333333333  -0.384900179  -0.166666667       6
     No degeneracy
      79   0.333333333  -0.384900179  -0.111111111       6
     No degeneracy
      80   0.333333333  -0.384900179  -0.055555556       6
     No degeneracy
      81   0.333333333  -0.192450090   0.000000000       6
     No degeneracy
      82   0.333333333  -0.192450090   0.055555556       6
     No degeneracy
      83   0.333333333  -0.192450090   0.111111111       6
     No degeneracy
      84   0.333333333  -0.192450090  -0.166666667       6
     No degeneracy
      85   0.333333333  -0.192450090  -0.111111111       6
     No degeneracy
      86   0.333333333  -0.192450090  -0.055555556       6
     No degeneracy
      87   0.333333333   0.000000000   0.000000000       6
     No degeneracy
      88   0.333333333   0.000000000   0.055555556       6
     No degeneracy
      89   0.333333333   0.000000000   0.111111111       6
     No degeneracy
      90   0.333333333   0.000000000  -0.166666667       6
     No degeneracy
      91   0.333333333   0.000000000  -0.111111111       6
     No degeneracy
      92   0.333333333   0.000000000  -0.055555556       6
     No degeneracy
      93  -0.500000000  -0.288675135   0.000000000       6
     No degeneracy
      94  -0.500000000  -0.288675135   0.055555556       6
     No degeneracy
      95  -0.500000000  -0.288675135   0.111111111       6
     No degeneracy
      96  -0.500000000  -0.288675135  -0.166666667       6
     No degeneracy
      97  -0.500000000  -0.096225045   0.000000000       6
     No degeneracy
      98  -0.500000000  -0.096225045   0.055555556       6
     No degeneracy
      99  -0.500000000  -0.096225045   0.111111111       6
     No degeneracy
     100  -0.500000000  -0.096225045  -0.166666667       6
     No degeneracy
     101  -0.500000000  -0.096225045  -0.111111111       6
     No degeneracy
     102  -0.500000000  -0.096225045  -0.055555556       6
     No degeneracy
     103  -0.500000000   0.096225045   0.000000000       6
     No degeneracy
     104  -0.500000000   0.096225045   0.055555556       6
     No degeneracy
     105  -0.500000000   0.096225045   0.111111111       6
     No degeneracy
     106  -0.500000000   0.096225045  -0.166666667       6
     No degeneracy
     107  -0.500000000   0.096225045  -0.111111111       6
     No degeneracy
     108  -0.500000000   0.096225045  -0.055555556       6
     No degeneracy
     109  -0.500000000  -0.866025404   0.000000000       6
     No degeneracy
     110  -0.500000000  -0.866025404   0.055555556       6
     No degeneracy
     111  -0.500000000  -0.866025404   0.111111111       6
     No degeneracy
     112  -0.500000000  -0.866025404  -0.166666667       6
     No degeneracy

     Calculation of q =    0.0000000   0.0000000   0.0000000

     default                                                                    

     bravais-lattice index     =            4
     lattice parameter (alat)  =       4.6540  a.u.
     unit-cell volume          =     261.8973 (a.u.)^3
     number of atoms/cell      =            2
     number of atomic types    =            1
     kinetic-energy cut-off    =      40.0000  Ry
     charge density cut-off    =     400.0000  Ry
     convergence threshold     =      1.0E-14
     beta                      =       0.7000
     number of iterations used =            4
     Exchange-correlation= PBE
                           (   1   4   3   4   0   0   0)


     celldm(1)=    4.65400  celldm(2)=    0.00000  celldm(3)=    3.00000
     celldm(4)=    0.00000  celldm(5)=    0.00000  celldm(6)=    0.00000

     crystal axes: (cart. coord. in units of alat)
               a(1) = (  1.0000  0.0000  0.0000 )  
               a(2) = ( -0.5000  0.8660  0.0000 )  
               a(3) = (  0.0000  0.0000  3.0000 )  

     reciprocal axes: (cart. coord. in units 2 pi/alat)
               b(1) = (  1.0000  0.5774 -0.0000 )  
               b(2) = (  0.0000  1.1547  0.0000 )  
               b(3) = (  0.0000 -0.0000  0.3333 )  


     Atoms inside the unit cell: 

     Cartesian axes

     site n.  atom      mass           positions (alat units)
        1  C      12.0107   tau(    1) = (    0.00000    0.00000    0.00000  )
        2  C      12.0107   tau(    2) = (    0.00000    0.57735    0.00000  )

     Computing dynamical matrix for 
                    q = (   0.0000000   0.0000000   0.0000000 )

      2 Sym.Ops. (with q -> -q+G )


     G cutoff =  219.4588  (   5912 G-vectors)     FFT grid: ( 30, 30, 90)
     G cutoff =   87.7835  (   1494 G-vectors)  smooth grid: ( 20, 20, 60)

     number of k points=    41  Gaussian smearing, width (Ry)=  0.0100

     PseudoPot. # 1 for C  read from file:
     ./C.pbe-n-rrkjus_psl.1.0.0.UPF
     MD5 check sum: 1fdd950c42eb37d8afe3dd2f8d12311e
     Pseudo is Ultrasoft + core correction, Zval =  4.0
     Generated using &quot;atomic&quot; code by A. Dal Corso  v.6.3MaX
     Using radial grid of 1073 points,  4 beta functions with: 
                l(1) =   0
                l(2) =   0
                l(3) =   1
                l(4) =   1
     Q(r) pseudized with 0 coefficients 


     Mode symmetry, C_1 (1)     point group:


     Atomic displacements:
     There are    6 irreducible representations

     Representation     1      1 modes -  To be done

     Representation     2      1 modes -  To be done

     Representation     3      1 modes -  To be done

     Representation     4      1 modes -  To be done

     Representation     5      1 modes -  To be done

     Representation     6      1 modes -  To be done



     Alpha used in Ewald sum =   2.8000

     negative rho (up, down):  9.554E-06 0.000E+00
     PHONON       :   2m19.14s CPU   2m18.75s WALL



     Representation #   1 mode #   1

     Self-consistent Calculation

     Pert. #  1: Fermi energy shift (Ry) =    -9.1392E-07     0.0000E+00

      iter #   1 total cpu time :   473.7 secs   av.it.:   5.2
      thresh= 1.000E-02 alpha_mix =  0.700 |ddv_scf|^2 =  5.706E-07

     Pert. #  1: Fermi energy shift (Ry) =     2.4356E-07     0.0000E+00

      iter #   2 total cpu time :   897.4 secs   av.it.:   8.8
      thresh= 7.554E-05 alpha_mix =  0.700 |ddv_scf|^2 =  3.195E-08

     Pert. #  1: Fermi energy shift (Ry) =    -1.0700E-07     0.0000E+00

      iter #   3 total cpu time :  1272.4 secs   av.it.:   7.4
      thresh= 1.788E-05 alpha_mix =  0.700 |ddv_scf|^2 =  8.465E-10

     Pert. #  1: Fermi energy shift (Ry) =     3.5676E-08     0.0000E+00

      iter #   4 total cpu time :  1653.3 secs   av.it.:   7.6
      thresh= 2.909E-06 alpha_mix =  0.700 |ddv_scf|^2 =  3.361E-13

     Pert. #  1: Fermi energy shift (Ry) =    -1.4218E-08     0.0000E+00

      iter #   5 total cpu time :  2066.8 secs   av.it.:   8.5
      thresh= 5.797E-08 alpha_mix =  0.700 |ddv_scf|^2 =  2.003E-14

     Pert. #  1: Fermi energy shift (Ry) =    -1.0576E-09     0.0000E+00

      iter #   6 total cpu time :  2499.0 secs   av.it.:   9.0
      thresh= 1.415E-08 alpha_mix =  0.700 |ddv_scf|^2 =  1.578E-14

     Pert. #  1: Fermi energy shift (Ry) =    -3.3331E-09     0.0000E+00

      iter #   7 total cpu time :  2895.1 secs   av.it.:   8.0
      thresh= 1.256E-08 alpha_mix =  0.700 |ddv_scf|^2 =  6.029E-17

     End of self-consistent calculation

     Convergence has been achieved 


     Representation #   2 mode #   2

     Self-consistent Calculation

     Pert. #  1: Fermi energy shift (Ry) =    -6.1246E-05     0.0000E+00

      iter #   1 total cpu time :  3232.7 secs   av.it.:   5.2
      thresh= 1.000E-02 alpha_mix =  0.700 |ddv_scf|^2 =  5.707E-07

     Pert. #  1: Fermi energy shift (Ry) =     1.2962E-04     0.0000E+00

      iter #   2 total cpu time :  3667.2 secs   av.it.:   8.8
      thresh= 7.554E-05 alpha_mix =  0.700 |ddv_scf|^2 =  3.195E-08

     Pert. #  1: Fermi energy shift (Ry) =    -4.0243E-05     0.0000E+00

      iter #   3 total cpu time :  4036.1 secs   av.it.:   7.3
      thresh= 1.787E-05 alpha_mix =  0.700 |ddv_scf|^2 =  8.475E-10

     Pert. #  1: Fermi energy shift (Ry) =     7.0889E-06     0.0000E+00

      iter #   4 total cpu time :  4417.9 secs   av.it.:   7.8
      thresh= 2.911E-06 alpha_mix =  0.700 |ddv_scf|^2 =  6.699E-13

     Pert. #  1: Fermi energy shift (Ry) =    -1.1280E-06     0.0000E+00

      iter #   5 total cpu time :  4844.9 secs   av.it.:   9.0
      thresh= 8.184E-08 alpha_mix =  0.700 |ddv_scf|^2 =  6.761E-13

     Pert. #  1: Fermi energy shift (Ry) =    -9.1691E-07     0.0000E+00

      iter #   6 total cpu time :  5239.5 secs   av.it.:   7.9
      thresh= 8.222E-08 alpha_mix =  0.700 |ddv_scf|^2 =  1.066E-14

     Pert. #  1: Fermi energy shift (Ry) =     2.5895E-07     0.0000E+00

      iter #   7 total cpu time :  5650.2 secs   av.it.:   8.5
      thresh= 1.032E-08 alpha_mix =  0.700 |ddv_scf|^2 =  3.002E-17

     End of self-consistent calculation

     Convergence has been achieved 


     Representation #   3 mode #   3

     Self-consistent Calculation

     Pert. #  1: Fermi energy shift (Ry) =     1.1911E-04     0.0000E+00

      iter #   1 total cpu time :  5995.8 secs   av.it.:   5.7
      thresh= 1.000E-02 alpha_mix =  0.700 |ddv_scf|^2 =  2.428E-05

     Pert. #  1: Fermi energy shift (Ry) =     3.0040E-04     0.0000E+00

      iter #   2 total cpu time :  6395.8 secs   av.it.:   8.3
      thresh= 4.927E-04 alpha_mix =  0.700 |ddv_scf|^2 =  1.333E-05

     Pert. #  1: Fermi energy shift (Ry) =     8.3237E-05     0.0000E+00

      iter #   3 total cpu time :  6776.4 secs   av.it.:   7.4
      thresh= 3.651E-04 alpha_mix =  0.700 |ddv_scf|^2 =  4.556E-08

     Pert. #  1: Fermi energy shift (Ry) =     9.3002E-05     0.0000E+00

      iter #   4 total cpu time :  7105.1 secs   av.it.:   6.6
      thresh= 2.134E-05 alpha_mix =  0.700 |ddv_scf|^2 =  1.640E-11

     Pert. #  1: Fermi energy shift (Ry) =     8.8597E-05     0.0000E+00

      iter #   5 total cpu time :  7519.5 secs   av.it.:   8.4
      thresh= 4.050E-07 alpha_mix =  0.700 |ddv_scf|^2 =  5.862E-13

     Pert. #  1: Fermi energy shift (Ry) =     8.9612E-05     0.0000E+00

      iter #   6 total cpu time :  7932.7 secs   av.it.:   8.6
      thresh= 7.656E-08 alpha_mix =  0.700 |ddv_scf|^2 =  1.770E-14

     Pert. #  1: Fermi energy shift (Ry) =     8.9428E-05     0.0000E+00

      iter #   7 total cpu time :  8368.1 secs   av.it.:   9.2
      thresh= 1.330E-08 alpha_mix =  0.700 |ddv_scf|^2 =  1.462E-14

     Pert. #  1: Fermi energy shift (Ry) =     8.9403E-05     0.0000E+00

      iter #   8 total cpu time :  8784.5 secs   av.it.:   8.6
      thresh= 1.209E-08 alpha_mix =  0.700 |ddv_scf|^2 =  8.269E-17

     End of self-consistent calculation

     Convergence has been achieved 


     Representation #   4 mode #   4

     Self-consistent Calculation

     Pert. #  1: Fermi energy shift (Ry) =     2.1754E-06     0.0000E+00

      iter #   1 total cpu time :  9122.2 secs   av.it.:   5.2
      thresh= 1.000E-02 alpha_mix =  0.700 |ddv_scf|^2 =  5.708E-07

     Pert. #  1: Fermi energy shift (Ry) =    -1.1602E-06     0.0000E+00

      iter #   2 total cpu time :  9556.1 secs   av.it.:   8.8
      thresh= 7.555E-05 alpha_mix =  0.700 |ddv_scf|^2 =  3.197E-08

     Pert. #  1: Fermi energy shift (Ry) =     4.9849E-07     0.0000E+00

      iter #   3 total cpu time :  9932.0 secs   av.it.:   7.4
      thresh= 1.788E-05 alpha_mix =  0.700 |ddv_scf|^2 =  8.466E-10

     Pert. #  1: Fermi energy shift (Ry) =    -1.2539E-07     0.0000E+00

      iter #   4 total cpu time : 10315.8 secs   av.it.:   7.6
      thresh= 2.910E-06 alpha_mix =  0.700 |ddv_scf|^2 =  3.356E-13

     Pert. #  1: Fermi energy shift (Ry) =     2.0862E-08     0.0000E+00

      iter #   5 total cpu time : 10726.6 secs   av.it.:   8.5
      thresh= 5.793E-08 alpha_mix =  0.700 |ddv_scf|^2 =  1.902E-14

     Pert. #  1: Fermi energy shift (Ry) =    -1.0511E-08     0.0000E+00

      iter #   6 total cpu time : 11157.5 secs   av.it.:   9.0
      thresh= 1.379E-08 alpha_mix =  0.700 |ddv_scf|^2 =  1.330E-14

     Pert. #  1: Fermi energy shift (Ry) =    -9.0527E-09     0.0000E+00

      iter #   7 total cpu time : 11553.7 secs   av.it.:   8.0
      thresh= 1.153E-08 alpha_mix =  0.700 |ddv_scf|^2 =  6.773E-17

     End of self-consistent calculation

     Convergence has been achieved 


     Representation #   5 mode #   5

     Self-consistent Calculation

     Pert. #  1: Fermi energy shift (Ry) =     6.0812E-05     0.0000E+00

      iter #   1 total cpu time : 11889.9 secs   av.it.:   5.2
      thresh= 1.000E-02 alpha_mix =  0.700 |ddv_scf|^2 =  5.710E-07

     Pert. #  1: Fermi energy shift (Ry) =    -1.2925E-04     0.0000E+00

      iter #   2 total cpu time : 12322.0 secs   av.it.:   8.8
      thresh= 7.556E-05 alpha_mix =  0.700 |ddv_scf|^2 =  3.198E-08

     Pert. #  1: Fermi energy shift (Ry) =     4.0139E-05     0.0000E+00

      iter #   3 total cpu time : 12690.7 secs   av.it.:   7.3
      thresh= 1.788E-05 alpha_mix =  0.700 |ddv_scf|^2 =  8.476E-10

     Pert. #  1: Fermi energy shift (Ry) =    -7.0649E-06     0.0000E+00

      iter #   4 total cpu time : 13074.4 secs   av.it.:   7.8
      thresh= 2.911E-06 alpha_mix =  0.700 |ddv_scf|^2 =  6.668E-13

     Pert. #  1: Fermi energy shift (Ry) =     1.1672E-06     0.0000E+00

      iter #   5 total cpu time : 13500.4 secs   av.it.:   9.0
      thresh= 8.166E-08 alpha_mix =  0.700 |ddv_scf|^2 =  6.714E-13

     Pert. #  1: Fermi energy shift (Ry) =     9.2764E-07     0.0000E+00

      iter #   6 total cpu time : 13894.3 secs   av.it.:   7.9
      thresh= 8.194E-08 alpha_mix =  0.700 |ddv_scf|^2 =  1.069E-14

     Pert. #  1: Fermi energy shift (Ry) =    -2.4217E-07     0.0000E+00

      iter #   7 total cpu time : 14309.3 secs   av.it.:   8.5
      thresh= 1.034E-08 alpha_mix =  0.700 |ddv_scf|^2 =  3.002E-17

     End of self-consistent calculation

     Convergence has been achieved 


     Representation #   6 mode #   6

     Self-consistent Calculation

     Pert. #  1: Fermi energy shift (Ry) =     1.1907E-04     0.0000E+00

      iter #   1 total cpu time : 14655.7 secs   av.it.:   5.7
      thresh= 1.000E-02 alpha_mix =  0.700 |ddv_scf|^2 =  2.428E-05

     Pert. #  1: Fermi energy shift (Ry) =     3.0033E-04     0.0000E+00

      iter #   2 total cpu time : 15056.6 secs   av.it.:   8.3
      thresh= 4.927E-04 alpha_mix =  0.700 |ddv_scf|^2 =  1.333E-05

     Pert. #  1: Fermi energy shift (Ry) =     8.3165E-05     0.0000E+00

      iter #   3 total cpu time : 15438.6 secs   av.it.:   7.4
      thresh= 3.652E-04 alpha_mix =  0.700 |ddv_scf|^2 =  4.556E-08

     Pert. #  1: Fermi energy shift (Ry) =     9.2929E-05     0.0000E+00

      iter #   4 total cpu time : 15766.7 secs   av.it.:   6.6
      thresh= 2.134E-05 alpha_mix =  0.700 |ddv_scf|^2 =  1.640E-11

     Pert. #  1: Fermi energy shift (Ry) =     8.8522E-05     0.0000E+00

      iter #   5 total cpu time : 16180.2 secs   av.it.:   8.4
      thresh= 4.049E-07 alpha_mix =  0.700 |ddv_scf|^2 =  5.862E-13

     Pert. #  1: Fermi energy shift (Ry) =     8.9541E-05     0.0000E+00

      iter #   6 total cpu time : 16593.5 secs   av.it.:   8.6
      thresh= 7.657E-08 alpha_mix =  0.700 |ddv_scf|^2 =  1.785E-14

     Pert. #  1: Fermi energy shift (Ry) =     8.9351E-05     0.0000E+00

      iter #   7 total cpu time : 17039.5 secs   av.it.:   9.2
      thresh= 1.336E-08 alpha_mix =  0.700 |ddv_scf|^2 =  1.465E-14

     Pert. #  1: Fermi energy shift (Ry) =     8.9329E-05     0.0000E+00

      iter #   8 total cpu time : 17463.7 secs   av.it.:   8.6
      thresh= 1.210E-08 alpha_mix =  0.700 |ddv_scf|^2 =  8.265E-17

     End of self-consistent calculation

     Convergence has been achieved 

     Number of q in the star =    1
     List of q in the star:
          1   0.000000000   0.000000000   0.000000000

     Diagonalizing the dynamical matrix

     q = (    0.000000000   0.000000000   0.000000000 ) 

 **************************************************************************
     freq (    1) =      -2.191430 [THz] =     -73.098243 [cm-1]
     freq (    2) =       1.666643 [THz] =      55.593242 [cm-1]
     freq (    3) =       1.666796 [THz] =      55.598315 [cm-1]
     freq (    4) =      26.124433 [THz] =     871.417301 [cm-1]
     freq (    5) =      39.445000 [THz] =    1315.743564 [cm-1]
     freq (    6) =      39.445010 [THz] =    1315.743916 [cm-1]
 **************************************************************************

     Mode symmetry, C_1 (1)     point group:

     freq (   1-   1) =        -73.1  [cm-1]   --> A               I+R
     freq (   2-   2) =         55.6  [cm-1]   --> A               I+R
     freq (   3-   3) =         55.6  [cm-1]   --> A               I+R
     freq (   4-   4) =        871.4  [cm-1]   --> A               I+R
     freq (   5-   5) =       1315.7  [cm-1]   --> A               I+R
     freq (   6-   6) =       1315.7  [cm-1]   --> A               I+R

     Calculation of q =    0.0000000   0.0000000   0.0555556

     Parallelization info
     --------------------
     sticks:   dense  smooth     PW     G-vecs:    dense   smooth      PW
     Min          99      40     13                 5903     1494     283
     Max         100      41     15                 5912     1501     288
     Sum         595     241     85                35435     8973    1713

     Using Slab Decomposition


     Title: 
     default                                                                    


     bravais-lattice index     =            4
     lattice parameter (alat)  =       4.6540  a.u.
     unit-cell volume          =     261.8973 (a.u.)^3
     number of atoms/cell      =            2
     number of atomic types    =            1
     number of electrons       =         8.00
     number of Kohn-Sham states=            8
     kinetic-energy cutoff     =      40.0000  Ry
     charge density cutoff     =     400.0000  Ry
     Exchange-correlation= PBE
                           (   1   4   3   4   0   0   0)

     celldm(1)=   4.654000  celldm(2)=   0.000000  celldm(3)=   3.000000
     celldm(4)=   0.000000  celldm(5)=   0.000000  celldm(6)=   0.000000

     crystal axes: (cart. coord. in units of alat)
               a(1) = (   1.000000   0.000000   0.000000 )  
               a(2) = (  -0.500000   0.866025   0.000000 )  
               a(3) = (   0.000000   0.000000   3.000000 )  

     reciprocal axes: (cart. coord. in units 2 pi/alat)
               b(1) = (  1.000000  0.577350 -0.000000 )  
               b(2) = (  0.000000  1.154701  0.000000 )  
               b(3) = (  0.000000 -0.000000  0.333333 )  


     PseudoPot. # 1 for C  read from file:
     ./C.pbe-n-rrkjus_psl.1.0.0.UPF
     MD5 check sum: 1fdd950c42eb37d8afe3dd2f8d12311e
     Pseudo is Ultrasoft + core correction, Zval =  4.0
     Generated using &quot;atomic&quot; code by A. Dal Corso  v.6.3MaX
     Using radial grid of 1073 points,  4 beta functions with: 
                l(1) =   0
                l(2) =   0
                l(3) =   1
                l(4) =   1
     Q(r) pseudized with 0 coefficients 


     atomic species   valence    mass     pseudopotential
     C                 4.00    12.01070     C ( 1.00)

     No symmetry found



   Cartesian axes

     site n.     atom                  positions (alat units)
         1        C      tau(   1) = (   0.0000000   0.0000000   0.0000000  )
         2        C      tau(   2) = (   0.0000000   0.5773503   0.0000000  )

     number of k points=   162  Gaussian smearing, width (Ry)=  0.0100

     Number of k-points >= 100: set verbosity='high' to print them.

     Dense  grid:    35435 G-vectors     FFT dimensions: (  30,  30,  90)

     Smooth grid:     8973 G-vectors     FFT dimensions: (  20,  20,  60)

     Estimated max dynamical RAM per process >       6.31 MB

     Estimated total dynamical RAM >      37.84 MB

     Check: negative core charge=   -0.000004

     The potential is recalculated from file :
     ./temp/_ph0/graphene.save/charge-density


     negative rho (up, down):  9.554E-06 0.000E+00

     Adding external electric field

     Computed dipole along edir(3) : 
        Dipole               -0.0006 Ry au,         -0.0015 Debye
        Dipole field         -0.0000 Ry au, 

        E field amplitude [Ha a.u.]:  5.8820E-05
        Potential amp.        0.0023 Ry
        Total length         13.1243 bohr

     Starting wfcs are    8 atomic wfcs

     Band Structure Calculation
     Davidson diagonalization with overlap

     ethr =  1.25E-10,  avg # of iterations = 14.7

     total cpu time spent up to now is     3263.1 secs

     End of band structure calculation

     Number of k-points >= 100: set verbosity='high' to print the bands.

     the Fermi energy is     0.9020 ev

     Writing config to output data dir ./temp/_ph0/graphene.save/ :
     XML data file

     default                                                                    

     bravais-lattice index     =            4
     lattice parameter (alat)  =       4.6540  a.u.
     unit-cell volume          =     261.8973 (a.u.)^3
     number of atoms/cell      =            2
     number of atomic types    =            1
     kinetic-energy cut-off    =      40.0000  Ry
     charge density cut-off    =     400.0000  Ry
     convergence threshold     =      1.0E-14
     beta                      =       0.7000
     number of iterations used =            4
     Exchange-correlation= PBE
                           (   1   4   3   4   0   0   0)


     celldm(1)=    4.65400  celldm(2)=    0.00000  celldm(3)=    3.00000
     celldm(4)=    0.00000  celldm(5)=    0.00000  celldm(6)=    0.00000

     crystal axes: (cart. coord. in units of alat)
               a(1) = (  1.0000  0.0000  0.0000 )  
               a(2) = ( -0.5000  0.8660  0.0000 )  
               a(3) = (  0.0000  0.0000  3.0000 )  

     reciprocal axes: (cart. coord. in units 2 pi/alat)
               b(1) = (  1.0000  0.5774 -0.0000 )  
               b(2) = (  0.0000  1.1547  0.0000 )  
               b(3) = (  0.0000 -0.0000  0.3333 )  


     Atoms inside the unit cell: 

     Cartesian axes

     site n.  atom      mass           positions (alat units)
        1  C      12.0107   tau(    1) = (    0.00000    0.00000    0.00000  )
        2  C      12.0107   tau(    2) = (    0.00000    0.57735    0.00000  )

     Computing dynamical matrix for 
                    q = (   0.0000000   0.0000000   0.0555556 )

     No symmetry!

     G cutoff =  219.4588  (   5912 G-vectors)     FFT grid: ( 30, 30, 90)
     G cutoff =   87.7835  (   1494 G-vectors)  smooth grid: ( 20, 20, 60)

     number of k points=   162  Gaussian smearing, width (Ry)=  0.0100

     PseudoPot. # 1 for C  read from file:
     ./C.pbe-n-rrkjus_psl.1.0.0.UPF
     MD5 check sum: 1fdd950c42eb37d8afe3dd2f8d12311e
     Pseudo is Ultrasoft + core correction, Zval =  4.0
     Generated using &quot;atomic&quot; code by A. Dal Corso  v.6.3MaX
     Using radial grid of 1073 points,  4 beta functions with: 
                l(1) =   0
                l(2) =   0
                l(3) =   1
                l(4) =   1
     Q(r) pseudized with 0 coefficients 


     Mode symmetry, C_1 (1)     point group:


     Atomic displacements:
     There are    6 irreducible representations

     Representation     1      1 modes -  To be done

     Representation     2      1 modes -  To be done

     Representation     3      1 modes -  To be done

     Representation     4      1 modes -  To be done

     Representation     5      1 modes -  To be done

     Representation     6      1 modes -  To be done


     Message from routine init_vloc:
     Interpolation table for Vloc re-allocated

     Alpha used in Ewald sum =   2.8000

     negative rho (up, down):  9.554E-06 0.000E+00
     PHONON       :      5h48m CPU      5h49m WALL



     Representation #   1 mode #   1

     Self-consistent Calculation

      iter #   1 total cpu time : 21631.2 secs   av.it.:   5.3
      thresh= 1.000E-02 alpha_mix =  0.700 |ddv_scf|^2 =  5.708E-07

      iter #   2 total cpu time : 22486.0 secs   av.it.:   8.9
      thresh= 7.555E-05 alpha_mix =  0.700 |ddv_scf|^2 =  3.200E-08

      iter #   3 total cpu time : 23215.5 secs   av.it.:   7.4
      thresh= 1.789E-05 alpha_mix =  0.700 |ddv_scf|^2 =  7.478E-08

      iter #   4 total cpu time : 23727.1 secs   av.it.:   5.0
      thresh= 2.735E-05 alpha_mix =  0.700 |ddv_scf|^2 =  9.330E-06

      iter #   5 total cpu time : 24116.5 secs   av.it.:   3.0
      thresh= 3.055E-04 alpha_mix =  0.700 |ddv_scf|^2 =  3.385E-10

      iter #   6 total cpu time : 24814.1 secs   av.it.:   6.8
      thresh= 1.840E-06 alpha_mix =  0.700 |ddv_scf|^2 =  6.842E-12

      iter #   7 total cpu time : 25403.7 secs   av.it.:   5.6
      thresh= 2.616E-07 alpha_mix =  0.700 |ddv_scf|^2 =  4.923E-10

      iter #   8 total cpu time : 25815.3 secs   av.it.:   3.2
      thresh= 2.219E-06 alpha_mix =  0.700 |ddv_scf|^2 =  2.011E-12

      iter #   9 total cpu time : 26461.1 secs   av.it.:   6.3
      thresh= 1.418E-07 alpha_mix =  0.700 |ddv_scf|^2 =  3.347E-12

      iter #  10 total cpu time : 27040.1 secs   av.it.:   5.4
      thresh= 1.830E-07 alpha_mix =  0.700 |ddv_scf|^2 =  4.339E-13

      iter #  11 total cpu time : 27599.7 secs   av.it.:   5.2
      thresh= 6.587E-08 alpha_mix =  0.700 |ddv_scf|^2 =  6.700E-14

      iter #  12 total cpu time : 28194.3 secs   av.it.:   5.9
      thresh= 2.588E-08 alpha_mix =  0.700 |ddv_scf|^2 =  2.586E-16

     End of self-consistent calculation

     Convergence has been achieved 


     Representation #   2 mode #   2

     Self-consistent Calculation

      iter #   1 total cpu time : 28826.4 secs   av.it.:   5.2
      thresh= 1.000E-02 alpha_mix =  0.700 |ddv_scf|^2 =  5.708E-07

      iter #   2 total cpu time : 29684.6 secs   av.it.:   8.9
      thresh= 7.555E-05 alpha_mix =  0.700 |ddv_scf|^2 =  9.022E-08

      iter #   3 total cpu time : 30433.1 secs   av.it.:   7.5
      thresh= 3.004E-05 alpha_mix =  0.700 |ddv_scf|^2 =  3.012E-04

      iter #   4 total cpu time : 30751.1 secs   av.it.:   2.0
      thresh= 1.736E-03 alpha_mix =  0.700 |ddv_scf|^2 =  9.811E-09

      iter #   5 total cpu time : 31480.1 secs   av.it.:   7.4
      thresh= 9.905E-06 alpha_mix =  0.700 |ddv_scf|^2 =  5.334E-09

      iter #   6 total cpu time : 32075.3 secs   av.it.:   5.9
      thresh= 7.303E-06 alpha_mix =  0.700 |ddv_scf|^2 =  3.211E-08

      iter #   7 total cpu time : 32387.2 secs   av.it.:   2.0
      thresh= 1.792E-05 alpha_mix =  0.700 |ddv_scf|^2 =  2.143E-09

      iter #   8 total cpu time : 32978.9 secs   av.it.:   5.9
      thresh= 4.629E-06 alpha_mix =  0.700 |ddv_scf|^2 =  3.566E-10

      iter #   9 total cpu time : 33622.0 secs   av.it.:   6.1
      thresh= 1.888E-06 alpha_mix =  0.700 |ddv_scf|^2 =  9.186E-12

      iter #  10 total cpu time : 34318.4 secs   av.it.:   6.7
      thresh= 3.031E-07 alpha_mix =  0.700 |ddv_scf|^2 =  1.828E-12

      iter #  11 total cpu time : 34972.6 secs   av.it.:   6.2
      thresh= 1.352E-07 alpha_mix =  0.700 |ddv_scf|^2 =  6.688E-14

      iter #  12 total cpu time : 35601.5 secs   av.it.:   5.9
      thresh= 2.586E-08 alpha_mix =  0.700 |ddv_scf|^2 =  3.361E-14

      iter #  13 total cpu time : 36088.8 secs   av.it.:   4.2
      thresh= 1.833E-08 alpha_mix =  0.700 |ddv_scf|^2 =  6.495E-16

     End of self-consistent calculation

     Convergence has been achieved 


     Representation #   3 mode #   3

     Self-consistent Calculation

      iter #   1 total cpu time : 36760.4 secs   av.it.:   6.0
      thresh= 1.000E-02 alpha_mix =  0.700 |ddv_scf|^2 =  6.442E-01

      iter #   2 total cpu time : 37567.7 secs   av.it.:   8.3
      thresh= 1.000E-02 alpha_mix =  0.700 |ddv_scf|^2 =  3.063E+03

      iter #   3 total cpu time : 38379.9 secs   av.it.:   8.3
      thresh= 1.000E-02 alpha_mix =  0.700 |ddv_scf|^2 =  3.165E-01

      iter #   4 total cpu time : 38942.0 secs   av.it.:   5.3
      thresh= 1.000E-02 alpha_mix =  0.700 |ddv_scf|^2 =  2.972E-02

      iter #   5 total cpu time : 39472.0 secs   av.it.:   4.8
      thresh= 1.000E-02 alpha_mix =  0.700 |ddv_scf|^2 =  3.305E-03

      iter #   6 total cpu time : 39946.2 secs   av.it.:   4.0
      thresh= 5.749E-03 alpha_mix =  0.700 |ddv_scf|^2 =  4.145E-03

      iter #   7 total cpu time : 40276.5 secs   av.it.:   2.2
      thresh= 6.438E-03 alpha_mix =  0.700 |ddv_scf|^2 =  4.007E-05

      iter #   8 total cpu time : 40752.3 secs   av.it.:   4.2
      thresh= 6.330E-04 alpha_mix =  0.700 |ddv_scf|^2 =  3.625E-07

      iter #   9 total cpu time : 41264.7 secs   av.it.:   4.7
      thresh= 6.021E-05 alpha_mix =  0.700 |ddv_scf|^2 =  2.399E-08

      iter #  10 total cpu time : 41755.8 secs   av.it.:   4.4
      thresh= 1.549E-05 alpha_mix =  0.700 |ddv_scf|^2 =  2.951E-09

      iter #  11 total cpu time : 42271.9 secs   av.it.:   4.7
      thresh= 5.432E-06 alpha_mix =  0.700 |ddv_scf|^2 =  9.300E-10

      iter #  12 total cpu time : 42749.5 secs   av.it.:   4.2
      thresh= 3.050E-06 alpha_mix =  0.700 |ddv_scf|^2 =  4.062E-11

      iter #  13 total cpu time : 43169.5 secs   av.it.:   3.5
      thresh= 6.373E-07 alpha_mix =  0.700 |ddv_scf|^2 =  4.469E-12

      iter #  14 total cpu time : 43699.1 secs   av.it.:   4.7
      thresh= 2.114E-07 alpha_mix =  0.700 |ddv_scf|^2 =  2.019E-13

      iter #  15 total cpu time : 44249.5 secs   av.it.:   5.3
      thresh= 4.494E-08 alpha_mix =  0.700 |ddv_scf|^2 =  7.282E-17

     End of self-consistent calculation

     Convergence has been achieved 


     Representation #   4 mode #   4

     Self-consistent Calculation

      iter #   1 total cpu time : 44887.8 secs   av.it.:   5.3
      thresh= 1.000E-02 alpha_mix =  0.700 |ddv_scf|^2 =  5.710E-07

      iter #   2 total cpu time : 45738.9 secs   av.it.:   8.9
      thresh= 7.556E-05 alpha_mix =  0.700 |ddv_scf|^2 =  3.202E-08

      iter #   3 total cpu time : 46463.3 secs   av.it.:   7.4
      thresh= 1.789E-05 alpha_mix =  0.700 |ddv_scf|^2 =  1.567E-07

      iter #   4 total cpu time : 46933.3 secs   av.it.:   4.0
      thresh= 3.958E-05 alpha_mix =  0.700 |ddv_scf|^2 =  5.131E-06

      iter #   5 total cpu time : 47338.3 secs   av.it.:   3.2
      thresh= 2.265E-04 alpha_mix =  0.700 |ddv_scf|^2 =  1.876E-10

      iter #   6 total cpu time : 48032.1 secs   av.it.:   7.1
      thresh= 1.370E-06 alpha_mix =  0.700 |ddv_scf|^2 =  6.196E-12

      iter #   7 total cpu time : 48574.1 secs   av.it.:   5.1
      thresh= 2.489E-07 alpha_mix =  0.700 |ddv_scf|^2 =  2.880E-10

      iter #   8 total cpu time : 49014.9 secs   av.it.:   3.7
      thresh= 1.697E-06 alpha_mix =  0.700 |ddv_scf|^2 =  5.267E-13

      iter #   9 total cpu time : 49688.5 secs   av.it.:   6.8
      thresh= 7.257E-08 alpha_mix =  0.700 |ddv_scf|^2 =  5.214E-13

      iter #  10 total cpu time : 50318.3 secs   av.it.:   6.1
      thresh= 7.221E-08 alpha_mix =  0.700 |ddv_scf|^2 =  1.635E-13

      iter #  11 total cpu time : 50903.9 secs   av.it.:   5.8
      thresh= 4.043E-08 alpha_mix =  0.700 |ddv_scf|^2 =  3.708E-15

     End of self-consistent calculation

     Convergence has been achieved 


     Representation #   5 mode #   5

     Self-consistent Calculation

      iter #   1 total cpu time : 51534.6 secs   av.it.:   5.2
      thresh= 1.000E-02 alpha_mix =  0.700 |ddv_scf|^2 =  5.711E-07

      iter #   2 total cpu time : 52380.1 secs   av.it.:   8.9
      thresh= 7.557E-05 alpha_mix =  0.700 |ddv_scf|^2 =  8.759E-08

      iter #   3 total cpu time : 53120.0 secs   av.it.:   7.6
      thresh= 2.960E-05 alpha_mix =  0.700 |ddv_scf|^2 =  2.911E-04

      iter #   4 total cpu time : 53433.9 secs   av.it.:   2.0
      thresh= 1.706E-03 alpha_mix =  0.700 |ddv_scf|^2 =  9.815E-09

      iter #   5 total cpu time : 54147.0 secs   av.it.:   7.3
      thresh= 9.907E-06 alpha_mix =  0.700 |ddv_scf|^2 =  5.250E-09

      iter #   6 total cpu time : 54739.0 secs   av.it.:   5.8
      thresh= 7.246E-06 alpha_mix =  0.700 |ddv_scf|^2 =  3.114E-08

      iter #   7 total cpu time : 55049.0 secs   av.it.:   2.0
      thresh= 1.765E-05 alpha_mix =  0.700 |ddv_scf|^2 =  2.144E-09

      iter #   8 total cpu time : 55638.0 secs   av.it.:   5.9
      thresh= 4.631E-06 alpha_mix =  0.700 |ddv_scf|^2 =  3.501E-10

      iter #   9 total cpu time : 56255.2 secs   av.it.:   6.1
      thresh= 1.871E-06 alpha_mix =  0.700 |ddv_scf|^2 =  8.713E-12

      iter #  10 total cpu time : 56919.1 secs   av.it.:   6.7
      thresh= 2.952E-07 alpha_mix =  0.700 |ddv_scf|^2 =  1.767E-12

      iter #  11 total cpu time : 57543.8 secs   av.it.:   6.2
      thresh= 1.329E-07 alpha_mix =  0.700 |ddv_scf|^2 =  6.362E-14

      iter #  12 total cpu time : 58151.0 secs   av.it.:   5.9
      thresh= 2.522E-08 alpha_mix =  0.700 |ddv_scf|^2 =  3.104E-14

      iter #  13 total cpu time : 58633.5 secs   av.it.:   4.2
      thresh= 1.762E-08 alpha_mix =  0.700 |ddv_scf|^2 =  6.585E-16

     End of self-consistent calculation

     Convergence has been achieved 


     Representation #   6 mode #   6

     Self-consistent Calculation

      iter #   1 total cpu time : 59293.7 secs   av.it.:   6.0
      thresh= 1.000E-02 alpha_mix =  0.700 |ddv_scf|^2 =  6.442E-01

      iter #   2 total cpu time : 60092.9 secs   av.it.:   8.3
      thresh= 1.000E-02 alpha_mix =  0.700 |ddv_scf|^2 =  3.063E+03

      iter #   3 total cpu time : 60892.9 secs   av.it.:   8.3
      thresh= 1.000E-02 alpha_mix =  0.700 |ddv_scf|^2 =  3.165E-01

      iter #   4 total cpu time : 61449.3 secs   av.it.:   5.3
      thresh= 1.000E-02 alpha_mix =  0.700 |ddv_scf|^2 =  2.972E-02

      iter #   5 total cpu time : 61967.9 secs   av.it.:   4.8
      thresh= 1.000E-02 alpha_mix =  0.700 |ddv_scf|^2 =  3.305E-03

      iter #   6 total cpu time : 62433.9 secs   av.it.:   4.0
      thresh= 5.749E-03 alpha_mix =  0.700 |ddv_scf|^2 =  4.145E-03

      iter #   7 total cpu time : 62763.4 secs   av.it.:   2.2
      thresh= 6.438E-03 alpha_mix =  0.700 |ddv_scf|^2 =  4.007E-05

      iter #   8 total cpu time : 63231.4 secs   av.it.:   4.2
      thresh= 6.330E-04 alpha_mix =  0.700 |ddv_scf|^2 =  3.625E-07

      iter #   9 total cpu time : 63736.1 secs   av.it.:   4.7
      thresh= 6.021E-05 alpha_mix =  0.700 |ddv_scf|^2 =  2.399E-08

      iter #  10 total cpu time : 64220.7 secs   av.it.:   4.4
      thresh= 1.549E-05 alpha_mix =  0.700 |ddv_scf|^2 =  2.950E-09

      iter #  11 total cpu time : 64730.4 secs   av.it.:   4.7
      thresh= 5.432E-06 alpha_mix =  0.700 |ddv_scf|^2 =  9.297E-10

      iter #  12 total cpu time : 65195.3 secs   av.it.:   4.2
      thresh= 3.049E-06 alpha_mix =  0.700 |ddv_scf|^2 =  4.063E-11

      iter #  13 total cpu time : 65616.8 secs   av.it.:   3.5
      thresh= 6.374E-07 alpha_mix =  0.700 |ddv_scf|^2 =  4.452E-12

      iter #  14 total cpu time : 66138.9 secs   av.it.:   4.7
      thresh= 2.110E-07 alpha_mix =  0.700 |ddv_scf|^2 =  2.022E-13

      iter #  15 total cpu time : 66676.4 secs   av.it.:   5.0
      thresh= 4.497E-08 alpha_mix =  0.700 |ddv_scf|^2 =  7.868E-17

     End of self-consistent calculation

     Convergence has been achieved 

     Number of q in the star =    1
     List of q in the star:
          1   0.000000000   0.000000000   0.055555556
     In addition there is the -q list: 
          1  -0.000000000  -0.000000000  -0.055555556

     Diagonalizing the dynamical matrix

     q = (    0.000000000   0.000000000   0.055555556 ) 

 **************************************************************************
     freq (    1) =      -2.264568 [THz] =     -75.537842 [cm-1]
     freq (    2) =       1.663917 [THz] =      55.502300 [cm-1]
     freq (    3) =       1.664104 [THz] =      55.508548 [cm-1]
     freq (    4) =      26.123116 [THz] =     871.373351 [cm-1]
     freq (    5) =      39.431716 [THz] =    1315.300456 [cm-1]
     freq (    6) =      39.431719 [THz] =    1315.300555 [cm-1]
 **************************************************************************

     Mode symmetry, C_1 (1)     point group:

     freq (   1-   1) =        -75.5  [cm-1]   --> A                  
     freq (   2-   2) =         55.5  [cm-1]   --> A                  
     freq (   3-   3) =         55.5  [cm-1]   --> A                  
     freq (   4-   4) =        871.4  [cm-1]   --> A                  
     freq (   5-   5) =       1315.3  [cm-1]   --> A                  
     freq (   6-   6) =       1315.3  [cm-1]   --> A                  

     Calculation of q =    0.0000000   0.0000000   0.1111111

     Parallelization info
     --------------------
     sticks:   dense  smooth     PW     G-vecs:    dense   smooth      PW
     Min          99      40     13                 5903     1494     283
     Max         100      41     15                 5912     1501     288
     Sum         595     241     85                35435     8973    1713

     Using Slab Decomposition


     Title: 
     default                                                                    


     bravais-lattice index     =            4
     lattice parameter (alat)  =       4.6540  a.u.
     unit-cell volume          =     261.8973 (a.u.)^3
     number of atoms/cell      =            2
     number of atomic types    =            1
     number of electrons       =         8.00
     number of Kohn-Sham states=            8
     kinetic-energy cutoff     =      40.0000  Ry
     charge density cutoff     =     400.0000  Ry
     Exchange-correlation= PBE
                           (   1   4   3   4   0   0   0)

     celldm(1)=   4.654000  celldm(2)=   0.000000  celldm(3)=   3.000000
     celldm(4)=   0.000000  celldm(5)=   0.000000  celldm(6)=   0.000000

     crystal axes: (cart. coord. in units of alat)
               a(1) = (   1.000000   0.000000   0.000000 )  
               a(2) = (  -0.500000   0.866025   0.000000 )  
               a(3) = (   0.000000   0.000000   3.000000 )  

     reciprocal axes: (cart. coord. in units 2 pi/alat)
               b(1) = (  1.000000  0.577350 -0.000000 )  
               b(2) = (  0.000000  1.154701  0.000000 )  
               b(3) = (  0.000000 -0.000000  0.333333 )  


     PseudoPot. # 1 for C  read from file:
     ./C.pbe-n-rrkjus_psl.1.0.0.UPF
     MD5 check sum: 1fdd950c42eb37d8afe3dd2f8d12311e
     Pseudo is Ultrasoft + core correction, Zval =  4.0
     Generated using &quot;atomic&quot; code by A. Dal Corso  v.6.3MaX
     Using radial grid of 1073 points,  4 beta functions with: 
                l(1) =   0
                l(2) =   0
                l(3) =   1
                l(4) =   1
     Q(r) pseudized with 0 coefficients 


     atomic species   valence    mass     pseudopotential
     C                 4.00    12.01070     C ( 1.00)

     No symmetry found



   Cartesian axes

     site n.     atom                  positions (alat units)
         1        C      tau(   1) = (   0.0000000   0.0000000   0.0000000  )
         2        C      tau(   2) = (   0.0000000   0.5773503   0.0000000  )

     number of k points=   162  Gaussian smearing, width (Ry)=  0.0100

     Number of k-points >= 100: set verbosity='high' to print them.

     Dense  grid:    35435 G-vectors     FFT dimensions: (  30,  30,  90)

     Smooth grid:     8973 G-vectors     FFT dimensions: (  20,  20,  60)

     Estimated max dynamical RAM per process >       6.31 MB

     Estimated total dynamical RAM >      37.85 MB

     Check: negative core charge=   -0.000004

     The potential is recalculated from file :
     ./temp/_ph0/graphene.save/charge-density


     negative rho (up, down):  9.554E-06 0.000E+00

     Adding external electric field

     Computed dipole along edir(3) : 
        Dipole               -0.0006 Ry au,         -0.0015 Debye
        Dipole field         -0.0000 Ry au, 

        E field amplitude [Ha a.u.]:  5.8820E-05
        Potential amp.        0.0023 Ry
        Total length         13.1243 bohr

     Starting wfcs are    8 atomic wfcs

     Band Structure Calculation
     Davidson diagonalization with overlap

     ethr =  1.25E-10,  avg # of iterations = 14.5

     total cpu time spent up to now is     6452.0 secs

     End of band structure calculation

     Number of k-points >= 100: set verbosity='high' to print the bands.

     the Fermi energy is     0.9020 ev

     Writing config to output data dir ./temp/_ph0/graphene.save/ :
     XML data file

     default                                                                    

     bravais-lattice index     =            4
     lattice parameter (alat)  =       4.6540  a.u.
     unit-cell volume          =     261.8973 (a.u.)^3
     number of atoms/cell      =            2
     number of atomic types    =            1
     kinetic-energy cut-off    =      40.0000  Ry
     charge density cut-off    =     400.0000  Ry
     convergence threshold     =      1.0E-14
     beta                      =       0.7000
     number of iterations used =            4
     Exchange-correlation= PBE
                           (   1   4   3   4   0   0   0)


     celldm(1)=    4.65400  celldm(2)=    0.00000  celldm(3)=    3.00000
     celldm(4)=    0.00000  celldm(5)=    0.00000  celldm(6)=    0.00000

     crystal axes: (cart. coord. in units of alat)
               a(1) = (  1.0000  0.0000  0.0000 )  
               a(2) = ( -0.5000  0.8660  0.0000 )  
               a(3) = (  0.0000  0.0000  3.0000 )  

     reciprocal axes: (cart. coord. in units 2 pi/alat)
               b(1) = (  1.0000  0.5774 -0.0000 )  
               b(2) = (  0.0000  1.1547  0.0000 )  
               b(3) = (  0.0000 -0.0000  0.3333 )  


     Atoms inside the unit cell: 

     Cartesian axes

     site n.  atom      mass           positions (alat units)
        1  C      12.0107   tau(    1) = (    0.00000    0.00000    0.00000  )
        2  C      12.0107   tau(    2) = (    0.00000    0.57735    0.00000  )

     Computing dynamical matrix for 
                    q = (   0.0000000   0.0000000   0.1111111 )

     No symmetry!

     G cutoff =  219.4588  (   5912 G-vectors)     FFT grid: ( 30, 30, 90)
     G cutoff =   87.7835  (   1494 G-vectors)  smooth grid: ( 20, 20, 60)

     number of k points=   162  Gaussian smearing, width (Ry)=  0.0100

     PseudoPot. # 1 for C  read from file:
     ./C.pbe-n-rrkjus_psl.1.0.0.UPF
     MD5 check sum: 1fdd950c42eb37d8afe3dd2f8d12311e
     Pseudo is Ultrasoft + core correction, Zval =  4.0
     Generated using &quot;atomic&quot; code by A. Dal Corso  v.6.3MaX
     Using radial grid of 1073 points,  4 beta functions with: 
                l(1) =   0
                l(2) =   0
                l(3) =   1
                l(4) =   1
     Q(r) pseudized with 0 coefficients 


     Mode symmetry, C_1 (1)     point group:


     Atomic displacements:
     There are    6 irreducible representations

     Representation     1      1 modes -  To be done

     Representation     2      1 modes -  To be done

     Representation     3      1 modes -  To be done

     Representation     4      1 modes -  To be done

     Representation     5      1 modes -  To be done

     Representation     6      1 modes -  To be done



     Alpha used in Ewald sum =   2.8000

     negative rho (up, down):  9.554E-06 0.000E+00
     PHONON       :     19h24m CPU     19h28m WALL



     Representation #   1 mode #   1

     Self-consistent Calculation

      iter #   1 total cpu time : 70748.9 secs   av.it.:   5.3
      thresh= 1.000E-02 alpha_mix =  0.700 |ddv_scf|^2 =  5.712E-07

      iter #   2 total cpu time : 71603.5 secs   av.it.:   9.0
      thresh= 7.558E-05 alpha_mix =  0.700 |ddv_scf|^2 =  3.206E-08

      iter #   3 total cpu time : 72329.7 secs   av.it.:   7.4
      thresh= 1.790E-05 alpha_mix =  0.700 |ddv_scf|^2 =  8.863E-10

      iter #   4 total cpu time : 73097.6 secs   av.it.:   8.3
      thresh= 2.977E-06 alpha_mix =  0.700 |ddv_scf|^2 =  2.260E-08

      iter #   5 total cpu time : 73529.2 secs   av.it.:   3.7
      thresh= 1.503E-05 alpha_mix =  0.700 |ddv_scf|^2 =  2.704E-12

      iter #   6 total cpu time : 74274.2 secs   av.it.:   7.8
      thresh= 1.644E-07 alpha_mix =  0.700 |ddv_scf|^2 =  5.253E-14

      iter #   7 total cpu time : 75107.4 secs   av.it.:   8.8
      thresh= 2.292E-08 alpha_mix =  0.700 |ddv_scf|^2 =  4.030E-13

      iter #   8 total cpu time : 75743.1 secs   av.it.:   6.4
      thresh= 6.348E-08 alpha_mix =  0.700 |ddv_scf|^2 =  4.550E-13

      iter #   9 total cpu time : 76307.7 secs   av.it.:   5.4
      thresh= 6.746E-08 alpha_mix =  0.700 |ddv_scf|^2 =  1.376E-14

      iter #  10 total cpu time : 76954.0 secs   av.it.:   6.2
      thresh= 1.173E-08 alpha_mix =  0.700 |ddv_scf|^2 =  4.822E-16

     End of self-consistent calculation

     Convergence has been achieved 


     Representation #   2 mode #   2

     Self-consistent Calculation

      iter #   1 total cpu time : 77591.0 secs   av.it.:   5.2
      thresh= 1.000E-02 alpha_mix =  0.700 |ddv_scf|^2 =  5.711E-07

      iter #   2 total cpu time : 78448.4 secs   av.it.:   9.0
      thresh= 7.557E-05 alpha_mix =  0.700 |ddv_scf|^2 =  3.612E-08

      iter #   3 total cpu time : 79215.7 secs   av.it.:   7.9
      thresh= 1.900E-05 alpha_mix =  0.700 |ddv_scf|^2 =  2.361E-06

      iter #   4 total cpu time : 79670.2 secs   av.it.:   4.0
      thresh= 1.537E-04 alpha_mix =  0.700 |ddv_scf|^2 =  2.968E-08

      iter #   5 total cpu time : 80298.0 secs   av.it.:   6.2
      thresh= 1.723E-05 alpha_mix =  0.700 |ddv_scf|^2 =  7.250E-12

      iter #   6 total cpu time : 81132.1 secs   av.it.:   8.7
      thresh= 2.693E-07 alpha_mix =  0.700 |ddv_scf|^2 =  2.628E-11

      iter #   7 total cpu time : 81818.7 secs   av.it.:   6.9
      thresh= 5.126E-07 alpha_mix =  0.700 |ddv_scf|^2 =  2.901E-11

      iter #   8 total cpu time : 82382.8 secs   av.it.:   5.2
      thresh= 5.386E-07 alpha_mix =  0.700 |ddv_scf|^2 =  2.562E-13

      iter #   9 total cpu time : 83125.8 secs   av.it.:   7.6
      thresh= 5.061E-08 alpha_mix =  0.700 |ddv_scf|^2 =  1.914E-13

      iter #  10 total cpu time : 83786.3 secs   av.it.:   6.5
      thresh= 4.375E-08 alpha_mix =  0.700 |ddv_scf|^2 =  7.009E-15

     End of self-consistent calculation

     Convergence has been achieved 


     Representation #   3 mode #   3

     Self-consistent Calculation

      iter #   1 total cpu time : 84448.7 secs   av.it.:   5.8
      thresh= 1.000E-02 alpha_mix =  0.700 |ddv_scf|^2 =  6.165E-03

      iter #   2 total cpu time : 85171.4 secs   av.it.:   7.2
      thresh= 7.852E-03 alpha_mix =  0.700 |ddv_scf|^2 =  2.202E+00

      iter #   3 total cpu time : 85849.1 secs   av.it.:   6.6
      thresh= 1.000E-02 alpha_mix =  0.700 |ddv_scf|^2 =  7.340E-03

      iter #   4 total cpu time : 86452.2 secs   av.it.:   5.9
      thresh= 8.567E-03 alpha_mix =  0.700 |ddv_scf|^2 =  3.232E-03

      iter #   5 total cpu time : 87007.5 secs   av.it.:   5.3
      thresh= 5.685E-03 alpha_mix =  0.700 |ddv_scf|^2 =  2.063E-07

      iter #   6 total cpu time : 87674.6 secs   av.it.:   6.6
      thresh= 4.542E-05 alpha_mix =  0.700 |ddv_scf|^2 =  3.031E-07

      iter #   7 total cpu time : 88133.5 secs   av.it.:   4.0
      thresh= 5.506E-05 alpha_mix =  0.700 |ddv_scf|^2 =  1.277E-08

      iter #   8 total cpu time : 88752.0 secs   av.it.:   6.0
      thresh= 1.130E-05 alpha_mix =  0.700 |ddv_scf|^2 =  4.757E-09

      iter #   9 total cpu time : 89352.9 secs   av.it.:   5.8
      thresh= 6.897E-06 alpha_mix =  0.700 |ddv_scf|^2 =  2.828E-12

      iter #  10 total cpu time : 90086.6 secs   av.it.:   7.3
      thresh= 1.682E-07 alpha_mix =  0.700 |ddv_scf|^2 =  1.398E-12

      iter #  11 total cpu time : 90735.6 secs   av.it.:   6.2
      thresh= 1.182E-07 alpha_mix =  0.700 |ddv_scf|^2 =  1.268E-12

      iter #  12 total cpu time : 91338.4 secs   av.it.:   5.8
      thresh= 1.126E-07 alpha_mix =  0.700 |ddv_scf|^2 =  2.720E-14

      iter #  13 total cpu time : 91974.4 secs   av.it.:   6.1
      thresh= 1.649E-08 alpha_mix =  0.700 |ddv_scf|^2 =  3.294E-15

     End of self-consistent calculation

     Convergence has been achieved 


     Representation #   4 mode #   4

     Self-consistent Calculation

      iter #   1 total cpu time : 92608.3 secs   av.it.:   5.3
      thresh= 1.000E-02 alpha_mix =  0.700 |ddv_scf|^2 =  5.713E-07

      iter #   2 total cpu time : 93465.9 secs   av.it.:   9.0
      thresh= 7.559E-05 alpha_mix =  0.700 |ddv_scf|^2 =  3.207E-08

      iter #   3 total cpu time : 94194.6 secs   av.it.:   7.4
      thresh= 1.791E-05 alpha_mix =  0.700 |ddv_scf|^2 =  9.207E-10

      iter #   4 total cpu time : 95001.1 secs   av.it.:   8.3
      thresh= 3.034E-06 alpha_mix =  0.700 |ddv_scf|^2 =  4.307E-08

      iter #   5 total cpu time : 95452.9 secs   av.it.:   3.7
      thresh= 2.075E-05 alpha_mix =  0.700 |ddv_scf|^2 =  2.080E-12

      iter #   6 total cpu time : 96246.2 secs   av.it.:   8.0
      thresh= 1.442E-07 alpha_mix =  0.700 |ddv_scf|^2 =  8.469E-14

      iter #   7 total cpu time : 97092.2 secs   av.it.:   8.7
      thresh= 2.910E-08 alpha_mix =  0.700 |ddv_scf|^2 =  7.355E-13

      iter #   8 total cpu time : 97725.0 secs   av.it.:   6.2
      thresh= 8.576E-08 alpha_mix =  0.700 |ddv_scf|^2 =  7.803E-13

      iter #   9 total cpu time : 98293.8 secs   av.it.:   5.2
      thresh= 8.834E-08 alpha_mix =  0.700 |ddv_scf|^2 =  1.038E-14

      iter #  10 total cpu time : 98939.6 secs   av.it.:   6.1
      thresh= 1.019E-08 alpha_mix =  0.700 |ddv_scf|^2 =  6.303E-16

     End of self-consistent calculation

     Convergence has been achieved 


     Representation #   5 mode #   5

     Self-consistent Calculation

      iter #   1 total cpu time : 99584.2 secs   av.it.:   5.2
      thresh= 1.000E-02 alpha_mix =  0.700 |ddv_scf|^2 =  5.714E-07

      iter #   2 total cpu time :100453.2 secs   av.it.:   9.0
      thresh= 7.559E-05 alpha_mix =  0.700 |ddv_scf|^2 =  3.610E-08

      iter #   3 total cpu time :101232.0 secs   av.it.:   7.9
      thresh= 1.900E-05 alpha_mix =  0.700 |ddv_scf|^2 =  2.335E-06

      iter #   4 total cpu time :101694.7 secs   av.it.:   4.0
      thresh= 1.528E-04 alpha_mix =  0.700 |ddv_scf|^2 =  3.005E-08

      iter #   5 total cpu time :102329.0 secs   av.it.:   6.2
      thresh= 1.734E-05 alpha_mix =  0.700 |ddv_scf|^2 =  6.959E-12

      iter #   6 total cpu time :103161.5 secs   av.it.:   8.7
      thresh= 2.638E-07 alpha_mix =  0.700 |ddv_scf|^2 =  2.565E-11

      iter #   7 total cpu time :103861.6 secs   av.it.:   6.9
      thresh= 5.064E-07 alpha_mix =  0.700 |ddv_scf|^2 =  2.869E-11

      iter #   8 total cpu time :104427.4 secs   av.it.:   5.2
      thresh= 5.356E-07 alpha_mix =  0.700 |ddv_scf|^2 =  2.590E-13

      iter #   9 total cpu time :105165.8 secs   av.it.:   7.6
      thresh= 5.089E-08 alpha_mix =  0.700 |ddv_scf|^2 =  1.882E-13

      iter #  10 total cpu time :105832.6 secs   av.it.:   6.5
      thresh= 4.339E-08 alpha_mix =  0.700 |ddv_scf|^2 =  6.784E-15

     End of self-consistent calculation

     Convergence has been achieved 


     Representation #   6 mode #   6

     Self-consistent Calculation

      iter #   1 total cpu time :106500.7 secs   av.it.:   5.8
      thresh= 1.000E-02 alpha_mix =  0.700 |ddv_scf|^2 =  6.165E-03

      iter #   2 total cpu time :107224.7 secs   av.it.:   7.2
      thresh= 7.852E-03 alpha_mix =  0.700 |ddv_scf|^2 =  2.202E+00

      iter #   3 total cpu time :107905.0 secs   av.it.:   6.6
      thresh= 1.000E-02 alpha_mix =  0.700 |ddv_scf|^2 =  7.339E-03

      iter #   4 total cpu time :108508.5 secs   av.it.:   5.9
      thresh= 8.567E-03 alpha_mix =  0.700 |ddv_scf|^2 =  3.232E-03

      iter #   5 total cpu time :109067.5 secs   av.it.:   5.3
      thresh= 5.685E-03 alpha_mix =  0.700 |ddv_scf|^2 =  2.064E-07

      iter #   6 total cpu time :109745.8 secs   av.it.:   6.6
      thresh= 4.543E-05 alpha_mix =  0.700 |ddv_scf|^2 =  3.031E-07

      iter #   7 total cpu time :110215.4 secs   av.it.:   4.0
      thresh= 5.506E-05 alpha_mix =  0.700 |ddv_scf|^2 =  1.277E-08

      iter #   8 total cpu time :110846.6 secs   av.it.:   6.0
      thresh= 1.130E-05 alpha_mix =  0.700 |ddv_scf|^2 =  4.757E-09

      iter #   9 total cpu time :111457.8 secs   av.it.:   5.8
      thresh= 6.897E-06 alpha_mix =  0.700 |ddv_scf|^2 =  2.827E-12

      iter #  10 total cpu time :112209.2 secs   av.it.:   7.3
      thresh= 1.681E-07 alpha_mix =  0.700 |ddv_scf|^2 =  1.400E-12

      iter #  11 total cpu time :112871.8 secs   av.it.:   6.2
      thresh= 1.183E-07 alpha_mix =  0.700 |ddv_scf|^2 =  1.275E-12

      iter #  12 total cpu time :113488.1 secs   av.it.:   5.7
      thresh= 1.129E-07 alpha_mix =  0.700 |ddv_scf|^2 =  2.721E-14

      iter #  13 total cpu time :114131.7 secs   av.it.:   6.1
      thresh= 1.650E-08 alpha_mix =  0.700 |ddv_scf|^2 =  3.278E-15

     End of self-consistent calculation

     Convergence has been achieved 

     Number of q in the star =    1
     List of q in the star:
          1   0.000000000   0.000000000   0.111111111
     In addition there is the -q list: 
          1  -0.000000000  -0.000000000  -0.111111111

     Diagonalizing the dynamical matrix

     q = (    0.000000000   0.000000000   0.111111111 ) 

 **************************************************************************
     freq (    1) =      -2.280169 [THz] =     -76.058265 [cm-1]
     freq (    2) =       1.716581 [THz] =      57.258980 [cm-1]
     freq (    3) =       1.718072 [THz] =      57.308721 [cm-1]
     freq (    4) =      26.122154 [THz] =     871.341275 [cm-1]
     freq (    5) =      39.458375 [THz] =    1316.189711 [cm-1]
     freq (    6) =      39.458447 [THz] =    1316.192109 [cm-1]
 **************************************************************************

     Mode symmetry, C_1 (1)     point group:

     freq (   1-   1) =        -76.1  [cm-1]   --> A                  
     freq (   2-   2) =         57.3  [cm-1]   --> A                  
     freq (   3-   3) =         57.3  [cm-1]   --> A                  
     freq (   4-   4) =        871.3  [cm-1]   --> A                  
     freq (   5-   5) =       1316.2  [cm-1]   --> A                  
     freq (   6-   6) =       1316.2  [cm-1]   --> A                  

     Calculation of q =    0.0000000   0.0000000  -0.1666667

     Parallelization info
     --------------------
     sticks:   dense  smooth     PW     G-vecs:    dense   smooth      PW
     Min          99      40     13                 5903     1494     283
     Max         100      41     15                 5912     1501     288
     Sum         595     241     85                35435     8973    1713

     Using Slab Decomposition


     Title: 
     default                                                                    


     bravais-lattice index     =            4
     lattice parameter (alat)  =       4.6540  a.u.
     unit-cell volume          =     261.8973 (a.u.)^3
     number of atoms/cell      =            2
     number of atomic types    =            1
     number of electrons       =         8.00
     number of Kohn-Sham states=            8
     kinetic-energy cutoff     =      40.0000  Ry
     charge density cutoff     =     400.0000  Ry
     Exchange-correlation= PBE
                           (   1   4   3   4   0   0   0)

     celldm(1)=   4.654000  celldm(2)=   0.000000  celldm(3)=   3.000000
     celldm(4)=   0.000000  celldm(5)=   0.000000  celldm(6)=   0.000000

     crystal axes: (cart. coord. in units of alat)
               a(1) = (   1.000000   0.000000   0.000000 )  
               a(2) = (  -0.500000   0.866025   0.000000 )  
               a(3) = (   0.000000   0.000000   3.000000 )  

     reciprocal axes: (cart. coord. in units 2 pi/alat)
               b(1) = (  1.000000  0.577350 -0.000000 )  
               b(2) = (  0.000000  1.154701  0.000000 )  
               b(3) = (  0.000000 -0.000000  0.333333 )  


     PseudoPot. # 1 for C  read from file:
     ./C.pbe-n-rrkjus_psl.1.0.0.UPF
     MD5 check sum: 1fdd950c42eb37d8afe3dd2f8d12311e
     Pseudo is Ultrasoft + core correction, Zval =  4.0
     Generated using &quot;atomic&quot; code by A. Dal Corso  v.6.3MaX
     Using radial grid of 1073 points,  4 beta functions with: 
                l(1) =   0
                l(2) =   0
                l(3) =   1
                l(4) =   1
     Q(r) pseudized with 0 coefficients 


     atomic species   valence    mass     pseudopotential
     C                 4.00    12.01070     C ( 1.00)

     No symmetry found



   Cartesian axes

     site n.     atom                  positions (alat units)
         1        C      tau(   1) = (   0.0000000   0.0000000   0.0000000  )
         2        C      tau(   2) = (   0.0000000   0.5773503   0.0000000  )

     number of k points=    82  Gaussian smearing, width (Ry)=  0.0100
                       cart. coord. in units 2pi/alat
        k(    1) = (   0.0000000   0.0000000   0.0000000), wk =   0.0246914
        k(    2) = (   0.0000000   0.0000000  -0.1666667), wk =   0.0000000
        k(    3) = (   0.0000000   0.1283001   0.0000000), wk =   0.0493827
        k(    4) = (   0.0000000   0.1283001  -0.1666667), wk =   0.0000000
        k(    5) = (   0.0000000   0.2566001   0.0000000), wk =   0.0493827
        k(    6) = (   0.0000000   0.2566001  -0.1666667), wk =   0.0000000
        k(    7) = (   0.0000000   0.3849002   0.0000000), wk =   0.0493827
        k(    8) = (   0.0000000   0.3849002  -0.1666667), wk =   0.0000000
        k(    9) = (   0.0000000   0.5132002   0.0000000), wk =   0.0493827
        k(   10) = (   0.0000000   0.5132002  -0.1666667), wk =   0.0000000
        k(   11) = (   0.1111111   0.1924501   0.0000000), wk =   0.0493827
        k(   12) = (   0.1111111   0.1924501  -0.1666667), wk =   0.0000000
        k(   13) = (   0.1111111   0.3207501   0.0000000), wk =   0.0493827
        k(   14) = (   0.1111111   0.3207501  -0.1666667), wk =   0.0000000
        k(   15) = (   0.1111111   0.4490502   0.0000000), wk =   0.0493827
        k(   16) = (   0.1111111   0.4490502  -0.1666667), wk =   0.0000000
        k(   17) = (   0.1111111   0.5773503   0.0000000), wk =   0.0493827
        k(   18) = (   0.1111111   0.5773503  -0.1666667), wk =   0.0000000
        k(   19) = (   0.2222222   0.3849002   0.0000000), wk =   0.0493827
        k(   20) = (   0.2222222   0.3849002  -0.1666667), wk =   0.0000000
        k(   21) = (   0.2222222   0.5132002   0.0000000), wk =   0.0493827
        k(   22) = (   0.2222222   0.5132002  -0.1666667), wk =   0.0000000
        k(   23) = (   0.3333333   0.5773503   0.0000000), wk =   0.0493827
        k(   24) = (   0.3333333   0.5773503  -0.1666667), wk =   0.0000000
        k(   25) = (  -0.1111111   0.0641500   0.0000000), wk =   0.0493827
        k(   26) = (  -0.1111111   0.0641500  -0.1666667), wk =   0.0000000
        k(   27) = (   0.1111111   0.0641500   0.0000000), wk =   0.0493827
        k(   28) = (   0.1111111   0.0641500  -0.1666667), wk =   0.0000000
        k(   29) = (  -0.2222222   0.1283001   0.0000000), wk =   0.0493827
        k(   30) = (  -0.2222222   0.1283001  -0.1666667), wk =   0.0000000
        k(   31) = (   0.2222222   0.1283001   0.0000000), wk =   0.0493827
        k(   32) = (   0.2222222   0.1283001  -0.1666667), wk =   0.0000000
        k(   33) = (  -0.3333333   0.1924501   0.0000000), wk =   0.0493827
        k(   34) = (  -0.3333333   0.1924501  -0.1666667), wk =   0.0000000
        k(   35) = (   0.3333333   0.1924501   0.0000000), wk =   0.0493827
        k(   36) = (   0.3333333   0.1924501  -0.1666667), wk =   0.0000000
        k(   37) = (  -0.4444444   0.2566001   0.0000000), wk =   0.0493827
        k(   38) = (  -0.4444444   0.2566001  -0.1666667), wk =   0.0000000
        k(   39) = (   0.4444444   0.2566001   0.0000000), wk =   0.0493827
        k(   40) = (   0.4444444   0.2566001  -0.1666667), wk =   0.0000000
        k(   41) = (  -0.1111111   0.1924501   0.0000000), wk =   0.0493827
        k(   42) = (  -0.1111111   0.1924501  -0.1666667), wk =   0.0000000
        k(   43) = (   0.2222222   0.0000000   0.0000000), wk =   0.0493827
        k(   44) = (   0.2222222   0.0000000  -0.1666667), wk =   0.0000000
        k(   45) = (  -0.1111111   0.3207501   0.0000000), wk =   0.0493827
        k(   46) = (  -0.1111111   0.3207501  -0.1666667), wk =   0.0000000
        k(   47) = (  -0.2222222   0.2566001   0.0000000), wk =   0.0493827
        k(   48) = (  -0.2222222   0.2566001  -0.1666667), wk =   0.0000000
        k(   49) = (   0.3333333   0.0641500   0.0000000), wk =   0.0493827
        k(   50) = (   0.3333333   0.0641500  -0.1666667), wk =   0.0000000
        k(   51) = (  -0.2222222  -0.2566001   0.0000000), wk =   0.0493827
        k(   52) = (  -0.2222222  -0.2566001  -0.1666667), wk =   0.0000000
        k(   53) = (   0.3333333  -0.0641500   0.0000000), wk =   0.0493827
        k(   54) = (   0.3333333  -0.0641500  -0.1666667), wk =   0.0000000
        k(   55) = (  -0.1111111   0.4490502   0.0000000), wk =   0.0493827
        k(   56) = (  -0.1111111   0.4490502  -0.1666667), wk =   0.0000000
        k(   57) = (  -0.3333333   0.3207501   0.0000000), wk =   0.0493827
        k(   58) = (  -0.3333333   0.3207501  -0.1666667), wk =   0.0000000
        k(   59) = (   0.4444444   0.1283001   0.0000000), wk =   0.0493827
        k(   60) = (   0.4444444   0.1283001  -0.1666667), wk =   0.0000000
        k(   61) = (  -0.3333333  -0.3207501   0.0000000), wk =   0.0493827
        k(   62) = (  -0.3333333  -0.3207501  -0.1666667), wk =   0.0000000
        k(   63) = (   0.4444444  -0.1283001   0.0000000), wk =   0.0493827
        k(   64) = (   0.4444444  -0.1283001  -0.1666667), wk =   0.0000000
        k(   65) = (  -0.4444444   0.3849002   0.0000000), wk =   0.0493827
        k(   66) = (  -0.4444444   0.3849002  -0.1666667), wk =   0.0000000
        k(   67) = (   0.5555556   0.1924501   0.0000000), wk =   0.0493827
        k(   68) = (   0.5555556   0.1924501  -0.1666667), wk =   0.0000000
        k(   69) = (  -0.2222222   0.3849002   0.0000000), wk =   0.0493827
        k(   70) = (  -0.2222222   0.3849002  -0.1666667), wk =   0.0000000
        k(   71) = (   0.4444444   0.0000000   0.0000000), wk =   0.0493827
        k(   72) = (   0.4444444   0.0000000  -0.1666667), wk =   0.0000000
        k(   73) = (  -0.2222222   0.5132002   0.0000000), wk =   0.0493827
        k(   74) = (  -0.2222222   0.5132002  -0.1666667), wk =   0.0000000
        k(   75) = (  -0.3333333   0.4490502   0.0000000), wk =   0.0493827
        k(   76) = (  -0.3333333   0.4490502  -0.1666667), wk =   0.0000000
        k(   77) = (   0.5555556   0.0641500   0.0000000), wk =   0.0493827
        k(   78) = (   0.5555556   0.0641500  -0.1666667), wk =   0.0000000
        k(   79) = (  -0.3333333  -0.4490502   0.0000000), wk =   0.0493827
        k(   80) = (  -0.3333333  -0.4490502  -0.1666667), wk =   0.0000000
        k(   81) = (   0.5555556  -0.0641500   0.0000000), wk =   0.0493827
        k(   82) = (   0.5555556  -0.0641500  -0.1666667), wk =   0.0000000

     Dense  grid:    35435 G-vectors     FFT dimensions: (  30,  30,  90)

     Smooth grid:     8973 G-vectors     FFT dimensions: (  20,  20,  60)

     Estimated max dynamical RAM per process >       6.31 MB

     Estimated total dynamical RAM >      37.86 MB

     Check: negative core charge=   -0.000004

     The potential is recalculated from file :
     ./temp/_ph0/graphene.save/charge-density


     negative rho (up, down):  9.554E-06 0.000E+00

     Adding external electric field

     Computed dipole along edir(3) : 
        Dipole               -0.0006 Ry au,         -0.0015 Debye
        Dipole field         -0.0000 Ry au, 

        E field amplitude [Ha a.u.]:  5.8820E-05
        Potential amp.        0.0023 Ry
        Total length         13.1243 bohr

     Starting wfcs are    8 atomic wfcs

     Band Structure Calculation
     Davidson diagonalization with overlap

     ethr =  1.25E-10,  avg # of iterations = 14.3

     total cpu time spent up to now is     8048.5 secs

     End of band structure calculation

          k = 0.0000 0.0000 0.0000 (  1133 PWs)   bands (ev):

   -18.6498  -6.7471  -2.1664  -2.1664   3.7446   7.1151   9.2558   9.2558

          k = 0.0000 0.0000-0.1667 (  1120 PWs)   bands (ev):

   -18.6497  -6.7499  -2.1659  -2.1659   4.6692   5.0585   9.2565   9.2565

          k = 0.0000 0.1283 0.0000 (  1120 PWs)   bands (ev):

   -18.3583  -6.3980  -3.2811  -2.7404   4.1424   7.4948   9.2832   9.8235

          k = 0.0000 0.1283-0.1667 (  1130 PWs)   bands (ev):

   -18.3583  -6.4010  -3.2811  -2.7403   5.0672   5.4445   9.3394  10.4637

          k = 0.0000 0.2566 0.0000 (  1114 PWs)   bands (ev):

   -17.4896  -5.8305  -5.3690  -3.8987   5.3350   8.5268   9.0292   9.0833

          k = 0.0000 0.2566-0.1667 (  1124 PWs)   bands (ev):

   -17.4896  -5.8303  -5.3716  -3.8992   6.2523   6.6007   8.9291   9.1175

          k = 0.0000 0.3849 0.0000 (  1118 PWs)   bands (ev):

   -16.0647  -8.7614  -4.9224  -3.7411   5.8323   7.3129   8.6708  10.5149

          k = 0.0000 0.3849-0.1667 (  1108 PWs)   bands (ev):

   -16.0646  -8.7611  -4.9223  -3.7429   5.8224   8.2707   8.4134   8.7976

          k = 0.0000 0.5132 0.0000 (  1128 PWs)   bands (ev):

   -14.1587 -11.5076  -5.4880  -1.8939   3.1278   8.3743  10.0821  12.9575

          k = 0.0000 0.5132-0.1667 (  1120 PWs)   bands (ev):

   -14.1586 -11.5076  -5.4880  -1.8951   3.1240   8.3749  10.9909  11.2000

          k = 0.1111 0.1925 0.0000 (  1133 PWs)   bands (ev):

[...]

     Self-consistent Calculation

      iter #   1 total cpu time :389635.5 secs   av.it.:   5.8
      thresh= 1.000E-02 alpha_mix =  0.700 |ddv_scf|^2 =  2.839E-05

      iter #   2 total cpu time :390446.0 secs   av.it.:   8.6
      thresh= 5.328E-04 alpha_mix =  0.700 |ddv_scf|^2 =  7.593E-05

      iter #   3 total cpu time :391179.8 secs   av.it.:   7.6
      thresh= 8.714E-04 alpha_mix =  0.700 |ddv_scf|^2 =  1.706E-07

      iter #   4 total cpu time :391996.2 secs   av.it.:   8.6
      thresh= 4.130E-05 alpha_mix =  0.700 |ddv_scf|^2 =  1.935E-08

      iter #   5 total cpu time :392818.1 secs   av.it.:   8.6
      thresh= 1.391E-05 alpha_mix =  0.700 |ddv_scf|^2 =  8.362E-10

      iter #   6 total cpu time :393635.6 secs   av.it.:   8.4
      thresh= 2.892E-06 alpha_mix =  0.700 |ddv_scf|^2 =  1.746E-12

      iter #   7 total cpu time :394430.7 secs   av.it.:   8.3
      thresh= 1.321E-07 alpha_mix =  0.700 |ddv_scf|^2 =  7.479E-14

      iter #   8 total cpu time :395239.0 secs   av.it.:   8.4
      thresh= 2.735E-08 alpha_mix =  0.700 |ddv_scf|^2 =  9.554E-14

      iter #   9 total cpu time :395995.6 secs   av.it.:   7.8
      thresh= 3.091E-08 alpha_mix =  0.700 |ddv_scf|^2 =  9.237E-16

     End of self-consistent calculation

     Convergence has been achieved 


     Representation #   3 mode #   3

     Self-consistent Calculation

      iter #   1 total cpu time :396652.3 secs   av.it.:   5.8
      thresh= 1.000E-02 alpha_mix =  0.700 |ddv_scf|^2 =  3.086E-06

      iter #   2 total cpu time :397475.2 secs   av.it.:   8.6
      thresh= 1.757E-04 alpha_mix =  0.700 |ddv_scf|^2 =  2.544E-07

      iter #   3 total cpu time :398284.0 secs   av.it.:   8.3
      thresh= 5.044E-05 alpha_mix =  0.700 |ddv_scf|^2 =  1.794E-08

      iter #   4 total cpu time :399062.5 secs   av.it.:   8.0
      thresh= 1.340E-05 alpha_mix =  0.700 |ddv_scf|^2 =  2.830E-12

      iter #   5 total cpu time :399918.2 secs   av.it.:   9.0
      thresh= 1.682E-07 alpha_mix =  0.700 |ddv_scf|^2 =  1.297E-13

      iter #   6 total cpu time :400802.2 secs   av.it.:   9.3
      thresh= 3.602E-08 alpha_mix =  0.700 |ddv_scf|^2 =  8.621E-14

      iter #   7 total cpu time :401598.7 secs   av.it.:   8.3
      thresh= 2.936E-08 alpha_mix =  0.700 |ddv_scf|^2 =  1.372E-14

      iter #   8 total cpu time :402390.5 secs   av.it.:   8.4
      thresh= 1.171E-08 alpha_mix =  0.700 |ddv_scf|^2 =  3.360E-16

     End of self-consistent calculation

     Convergence has been achieved 


     Representation #   4 mode #   4

     Self-consistent Calculation

      iter #   1 total cpu time :403009.9 secs   av.it.:   5.2
      thresh= 1.000E-02 alpha_mix =  0.700 |ddv_scf|^2 =  7.237E-07

      iter #   2 total cpu time :403829.9 secs   av.it.:   8.6
      thresh= 8.507E-05 alpha_mix =  0.700 |ddv_scf|^2 =  3.305E-08

      iter #   3 total cpu time :404586.7 secs   av.it.:   7.8
      thresh= 1.818E-05 alpha_mix =  0.700 |ddv_scf|^2 =  1.815E-09

      iter #   4 total cpu time :405303.5 secs   av.it.:   7.3
      thresh= 4.261E-06 alpha_mix =  0.700 |ddv_scf|^2 =  5.420E-13

      iter #   5 total cpu time :406145.9 secs   av.it.:   9.0
      thresh= 7.362E-08 alpha_mix =  0.700 |ddv_scf|^2 =  1.370E-13

      iter #   6 total cpu time :406909.1 secs   av.it.:   7.9
      thresh= 3.702E-08 alpha_mix =  0.700 |ddv_scf|^2 =  2.985E-14

      iter #   7 total cpu time :407661.5 secs   av.it.:   7.9
      thresh= 1.728E-08 alpha_mix =  0.700 |ddv_scf|^2 =  3.359E-16

     End of self-consistent calculation

     Convergence has been achieved 


     Representation #   5 mode #   5

     Self-consistent Calculation

      iter #   1 total cpu time :408312.0 secs   av.it.:   5.8
      thresh= 1.000E-02 alpha_mix =  0.700 |ddv_scf|^2 =  2.839E-05

      iter #   2 total cpu time :409116.0 secs   av.it.:   8.6
      thresh= 5.328E-04 alpha_mix =  0.700 |ddv_scf|^2 =  7.592E-05

      iter #   3 total cpu time :409847.3 secs   av.it.:   7.6
      thresh= 8.713E-04 alpha_mix =  0.700 |ddv_scf|^2 =  1.706E-07

      iter #   4 total cpu time :410662.3 secs   av.it.:   8.6
      thresh= 4.131E-05 alpha_mix =  0.700 |ddv_scf|^2 =  1.936E-08

      iter #   5 total cpu time :411470.5 secs   av.it.:   8.6
      thresh= 1.392E-05 alpha_mix =  0.700 |ddv_scf|^2 =  8.361E-10

      iter #   6 total cpu time :412268.4 secs   av.it.:   8.4
      thresh= 2.892E-06 alpha_mix =  0.700 |ddv_scf|^2 =  1.780E-12

      iter #   7 total cpu time :413045.2 secs   av.it.:   8.2
      thresh= 1.334E-07 alpha_mix =  0.700 |ddv_scf|^2 =  1.397E-13

      iter #   8 total cpu time :413824.6 secs   av.it.:   8.1
      thresh= 3.737E-08 alpha_mix =  0.700 |ddv_scf|^2 =  1.196E-13

      iter #   9 total cpu time :414566.2 secs   av.it.:   7.8
      thresh= 3.458E-08 alpha_mix =  0.700 |ddv_scf|^2 =  8.974E-16

     End of self-consistent calculation

     Convergence has been achieved 


     Representation #   6 mode #   6

     Self-consistent Calculation

      iter #   1 total cpu time :415218.6 secs   av.it.:   5.8
      thresh= 1.000E-02 alpha_mix =  0.700 |ddv_scf|^2 =  3.085E-06

      iter #   2 total cpu time :416035.3 secs   av.it.:   8.6
      thresh= 1.756E-04 alpha_mix =  0.700 |ddv_scf|^2 =  2.542E-07

      iter #   3 total cpu time :416834.8 secs   av.it.:   8.3
      thresh= 5.042E-05 alpha_mix =  0.700 |ddv_scf|^2 =  1.794E-08

      iter #   4 total cpu time :417601.4 secs   av.it.:   8.0
      thresh= 1.339E-05 alpha_mix =  0.700 |ddv_scf|^2 =  2.852E-12

      iter #   5 total cpu time :418451.5 secs   av.it.:   9.0
      thresh= 1.689E-07 alpha_mix =  0.700 |ddv_scf|^2 =  1.281E-13

      iter #   6 total cpu time :419332.2 secs   av.it.:   9.3
      thresh= 3.579E-08 alpha_mix =  0.700 |ddv_scf|^2 =  7.732E-14

      iter #   7 total cpu time :420133.5 secs   av.it.:   8.3
      thresh= 2.781E-08 alpha_mix =  0.700 |ddv_scf|^2 =  1.453E-14

      iter #   8 total cpu time :420928.5 secs   av.it.:   8.4
      thresh= 1.205E-08 alpha_mix =  0.700 |ddv_scf|^2 =  3.410E-16

     End of self-consistent calculation

     Convergence has been achieved 

     Number of q in the star =    1
     List of q in the star:
          1   0.000000000   0.384900179   0.000000000
     In addition there is the -q list: 
          1  -0.000000000  -0.384900179  -0.000000000

     Diagonalizing the dynamical matrix

     q = (    0.000000000   0.384900179   0.000000000 ) 

 **************************************************************************
     freq (    1) =       7.658633 [THz] =     255.464502 [cm-1]
     freq (    2) =      16.694324 [THz] =     556.862708 [cm-1]
     freq (    3) =      22.865397 [THz] =     762.707552 [cm-1]
     freq (    4) =      30.200257 [THz] =    1007.372130 [cm-1]
     freq (    5) =      42.929707 [THz] =    1431.980884 [cm-1]
     freq (    6) =      46.132552 [THz] =    1538.816311 [cm-1]
 **************************************************************************

     Mode symmetry, C_1 (1)     point group:

     freq (   1-   1) =        255.5  [cm-1]   --> A                  
     freq (   2-   2) =        556.9  [cm-1]   --> A                  
     freq (   3-   3) =        762.7  [cm-1]   --> A                  
     freq (   4-   4) =       1007.4  [cm-1]   --> A                  
     freq (   5-   5) =       1432.0  [cm-1]   --> A                  
     freq (   6-   6) =       1538.8  [cm-1]   --> A                  

     Calculation of q =    0.0000000   0.3849002   0.0555556

     Parallelization info
     --------------------
     sticks:   dense  smooth     PW     G-vecs:    dense   smooth      PW
     Min          99      40     14                 5903     1494     336
     Max         100      41     15                 5912     1501     349
     Sum         595     241     85                35435     8973    2039

     Using Slab Decomposition


     Title: 
     default                                                                    


     bravais-lattice index     =            4
     lattice parameter (alat)  =       4.6540  a.u.
     unit-cell volume          =     261.8973 (a.u.)^3
     number of atoms/cell      =            2
     number of atomic types    =            1
     number of electrons       =         8.00
     number of Kohn-Sham states=            8
     kinetic-energy cutoff     =      40.0000  Ry
     charge density cutoff     =     400.0000  Ry
     Exchange-correlation= PBE
                           (   1   4   3   4   0   0   0)

     celldm(1)=   4.654000  celldm(2)=   0.000000  celldm(3)=   3.000000
     celldm(4)=   0.000000  celldm(5)=   0.000000  celldm(6)=   0.000000

     crystal axes: (cart. coord. in units of alat)
               a(1) = (   1.000000   0.000000   0.000000 )  
               a(2) = (  -0.500000   0.866025   0.000000 )  
               a(3) = (   0.000000   0.000000   3.000000 )  

     reciprocal axes: (cart. coord. in units 2 pi/alat)
               b(1) = (  1.000000  0.577350 -0.000000 )  
               b(2) = (  0.000000  1.154701  0.000000 )  
               b(3) = (  0.000000 -0.000000  0.333333 )  


     PseudoPot. # 1 for C  read from file:
     ./C.pbe-n-rrkjus_psl.1.0.0.UPF
     MD5 check sum: 1fdd950c42eb37d8afe3dd2f8d12311e
     Pseudo is Ultrasoft + core correction, Zval =  4.0
     Generated using &quot;atomic&quot; code by A. Dal Corso  v.6.3MaX
     Using radial grid of 1073 points,  4 beta functions with: 
                l(1) =   0
                l(2) =   0
                l(3) =   1
                l(4) =   1
     Q(r) pseudized with 0 coefficients 


     atomic species   valence    mass     pseudopotential
     C                 4.00    12.01070     C ( 1.00)

     No symmetry found



   Cartesian axes

     site n.     atom                  positions (alat units)
         1        C      tau(   1) = (   0.0000000   0.0000000   0.0000000  )
         2        C      tau(   2) = (   0.0000000   0.5773503   0.0000000  )

     number of k points=   162  Gaussian smearing, width (Ry)=  0.0100

     Number of k-points >= 100: set verbosity='high' to print them.

     Dense  grid:    35435 G-vectors     FFT dimensions: (  30,  30,  90)

     Smooth grid:     8973 G-vectors     FFT dimensions: (  20,  20,  60)

     Estimated max dynamical RAM per process >       6.32 MB

     Estimated total dynamical RAM >      37.90 MB

     Check: negative core charge=   -0.000004

     The potential is recalculated from file :
     ./temp/_ph0/graphene.save/charge-density


     negative rho (up, down):  9.554E-06 0.000E+00

     Adding external electric field

     Computed dipole along edir(3) : 
        Dipole               -0.0006 Ry au,         -0.0015 Debye
        Dipole field         -0.0000 Ry au, 

        E field amplitude [Ha a.u.]:  5.8820E-05
        Potential amp.        0.0023 Ry
        Total length         13.1243 bohr

     Starting wfcs are    8 atomic wfcs

     Band Structure Calculation
     Davidson diagonalization with overlap

     ethr =  1.25E-10,  avg # of iterations = 14.7

     total cpu time spent up to now is    34324.7 secs

     End of band structure calculation

     Number of k-points >= 100: set verbosity='high' to print the bands.

     the Fermi energy is     0.9020 ev

     Writing config to output data dir ./temp/_ph0/graphene.save/ :
     XML data file

     default                                                                    

     bravais-lattice index     =            4
     lattice parameter (alat)  =       4.6540  a.u.
     unit-cell volume          =     261.8973 (a.u.)^3
     number of atoms/cell      =            2
     number of atomic types    =            1
     kinetic-energy cut-off    =      40.0000  Ry
     charge density cut-off    =     400.0000  Ry
     convergence threshold     =      1.0E-14
     beta                      =       0.7000
     number of iterations used =            4
     Exchange-correlation= PBE
                           (   1   4   3   4   0   0   0)


     celldm(1)=    4.65400  celldm(2)=    0.00000  celldm(3)=    3.00000
     celldm(4)=    0.00000  celldm(5)=    0.00000  celldm(6)=    0.00000

     crystal axes: (cart. coord. in units of alat)
               a(1) = (  1.0000  0.0000  0.0000 )  
               a(2) = ( -0.5000  0.8660  0.0000 )  
               a(3) = (  0.0000  0.0000  3.0000 )  

     reciprocal axes: (cart. coord. in units 2 pi/alat)
               b(1) = (  1.0000  0.5774 -0.0000 )  
               b(2) = (  0.0000  1.1547  0.0000 )  
               b(3) = (  0.0000 -0.0000  0.3333 )  


     Atoms inside the unit cell: 

     Cartesian axes

     site n.  atom      mass           positions (alat units)
        1  C      12.0107   tau(    1) = (    0.00000    0.00000    0.00000  )
        2  C      12.0107   tau(    2) = (    0.00000    0.57735    0.00000  )

     Computing dynamical matrix for 
                    q = (   0.0000000   0.3849002   0.0555556 )

     No symmetry!

     G cutoff =  219.4588  (   5912 G-vectors)     FFT grid: ( 30, 30, 90)
     G cutoff =   87.7835  (   1494 G-vectors)  smooth grid: ( 20, 20, 60)

     number of k points=   162  Gaussian smearing, width (Ry)=  0.0100

     PseudoPot. # 1 for C  read from file:
     ./C.pbe-n-rrkjus_psl.1.0.0.UPF
     MD5 check sum: 1fdd950c42eb37d8afe3dd2f8d12311e
     Pseudo is Ultrasoft + core correction, Zval =  4.0
     Generated using &quot;atomic&quot; code by A. Dal Corso  v.6.3MaX
     Using radial grid of 1073 points,  4 beta functions with: 
                l(1) =   0
                l(2) =   0
                l(3) =   1
                l(4) =   1
     Q(r) pseudized with 0 coefficients 


     Mode symmetry, C_1 (1)     point group:


     Atomic displacements:
     There are    6 irreducible representations

     Representation     1      1 modes -  To be done

     Representation     2      1 modes -  To be done

     Representation     3      1 modes -  To be done

     Representation     4      1 modes -  To be done

     Representation     5      1 modes -  To be done

     Representation     6      1 modes -  To be done



     Alpha used in Ewald sum =   2.8000

     negative rho (up, down):  9.554E-06 0.000E+00
     PHONON       :   4d21h24m CPU   4d21h53m WALL



     Representation #   1 mode #   1

     Self-consistent Calculation

      iter #   1 total cpu time :425002.0 secs   av.it.:   5.2
      thresh= 1.000E-02 alpha_mix =  0.700 |ddv_scf|^2 =  7.238E-07

      iter #   2 total cpu time :425835.0 secs   av.it.:   8.7
      thresh= 8.508E-05 alpha_mix =  0.700 |ddv_scf|^2 =  3.305E-08

      iter #   3 total cpu time :426593.0 secs   av.it.:   7.9
      thresh= 1.818E-05 alpha_mix =  0.700 |ddv_scf|^2 =  1.815E-09

      iter #   4 total cpu time :427322.9 secs   av.it.:   7.4
      thresh= 4.261E-06 alpha_mix =  0.700 |ddv_scf|^2 =  5.394E-13

      iter #   5 total cpu time :428176.7 secs   av.it.:   9.2
      thresh= 7.345E-08 alpha_mix =  0.700 |ddv_scf|^2 =  1.338E-13

      iter #   6 total cpu time :428958.1 secs   av.it.:   8.3
      thresh= 3.658E-08 alpha_mix =  0.700 |ddv_scf|^2 =  2.998E-14

      iter #   7 total cpu time :429730.9 secs   av.it.:   8.1
      thresh= 1.731E-08 alpha_mix =  0.700 |ddv_scf|^2 =  3.399E-16

     End of self-consistent calculation

     Convergence has been achieved 


     Representation #   2 mode #   2

     Self-consistent Calculation

      iter #   1 total cpu time :430392.6 secs   av.it.:   5.9
      thresh= 1.000E-02 alpha_mix =  0.700 |ddv_scf|^2 =  2.813E-05

      iter #   2 total cpu time :431229.0 secs   av.it.:   8.9
      thresh= 5.304E-04 alpha_mix =  0.700 |ddv_scf|^2 =  7.498E-05

      iter #   3 total cpu time :431981.9 secs   av.it.:   7.9
      thresh= 8.659E-04 alpha_mix =  0.700 |ddv_scf|^2 =  1.705E-07

      iter #   4 total cpu time :432813.4 secs   av.it.:   8.8
      thresh= 4.129E-05 alpha_mix =  0.700 |ddv_scf|^2 =  1.934E-08

      iter #   5 total cpu time :433640.5 secs   av.it.:   8.8
      thresh= 1.391E-05 alpha_mix =  0.700 |ddv_scf|^2 =  8.328E-10

      iter #   6 total cpu time :434459.2 secs   av.it.:   8.6
      thresh= 2.886E-06 alpha_mix =  0.700 |ddv_scf|^2 =  1.613E-12

      iter #   7 total cpu time :435271.2 secs   av.it.:   8.4
      thresh= 1.270E-07 alpha_mix =  0.700 |ddv_scf|^2 =  7.269E-14

      iter #   8 total cpu time :436090.1 secs   av.it.:   8.7
      thresh= 2.696E-08 alpha_mix =  0.700 |ddv_scf|^2 =  9.269E-14

      iter #   9 total cpu time :436854.8 secs   av.it.:   7.9
      thresh= 3.044E-08 alpha_mix =  0.700 |ddv_scf|^2 =  9.349E-16

     End of self-consistent calculation

     Convergence has been achieved 


     Representation #   3 mode #   3

     Self-consistent Calculation

      iter #   1 total cpu time :437507.5 secs   av.it.:   5.9
      thresh= 1.000E-02 alpha_mix =  0.700 |ddv_scf|^2 =  3.134E-06

      iter #   2 total cpu time :438359.7 secs   av.it.:   9.0
      thresh= 1.770E-04 alpha_mix =  0.700 |ddv_scf|^2 =  2.587E-07

      iter #   3 total cpu time :439212.1 secs   av.it.:   8.9
      thresh= 5.087E-05 alpha_mix =  0.700 |ddv_scf|^2 =  2.040E-08

      iter #   4 total cpu time :440057.1 secs   av.it.:   9.0
      thresh= 1.428E-05 alpha_mix =  0.700 |ddv_scf|^2 =  1.098E-08

      iter #   5 total cpu time :440823.8 secs   av.it.:   8.0
      thresh= 1.048E-05 alpha_mix =  0.700 |ddv_scf|^2 =  9.356E-12

      iter #   6 total cpu time :441660.7 secs   av.it.:   8.9
      thresh= 3.059E-07 alpha_mix =  0.700 |ddv_scf|^2 =  8.400E-14

      iter #   7 total cpu time :442584.7 secs   av.it.:   9.4
      thresh= 2.898E-08 alpha_mix =  0.700 |ddv_scf|^2 =  2.499E-14

      iter #   8 total cpu time :443433.5 secs   av.it.:   9.1
      thresh= 1.581E-08 alpha_mix =  0.700 |ddv_scf|^2 =  1.321E-15

     End of self-consistent calculation

     Convergence has been achieved 


     Representation #   4 mode #   4

     Self-consistent Calculation

      iter #   1 total cpu time :444065.2 secs   av.it.:   5.2
      thresh= 1.000E-02 alpha_mix =  0.700 |ddv_scf|^2 =  7.240E-07

      iter #   2 total cpu time :444905.2 secs   av.it.:   8.7
      thresh= 8.509E-05 alpha_mix =  0.700 |ddv_scf|^2 =  3.307E-08

      iter #   3 total cpu time :445665.0 secs   av.it.:   7.9
      thresh= 1.819E-05 alpha_mix =  0.700 |ddv_scf|^2 =  1.816E-09

      iter #   4 total cpu time :446393.7 secs   av.it.:   7.4
      thresh= 4.261E-06 alpha_mix =  0.700 |ddv_scf|^2 =  5.397E-13

      iter #   5 total cpu time :447254.2 secs   av.it.:   9.2
      thresh= 7.347E-08 alpha_mix =  0.700 |ddv_scf|^2 =  1.372E-13

      iter #   6 total cpu time :448036.0 secs   av.it.:   8.2
      thresh= 3.704E-08 alpha_mix =  0.700 |ddv_scf|^2 =  2.956E-14

      iter #   7 total cpu time :448808.8 secs   av.it.:   8.1
      thresh= 1.719E-08 alpha_mix =  0.700 |ddv_scf|^2 =  3.398E-16

     End of self-consistent calculation

     Convergence has been achieved 


     Representation #   5 mode #   5

     Self-consistent Calculation

      iter #   1 total cpu time :449468.8 secs   av.it.:   5.9
      thresh= 1.000E-02 alpha_mix =  0.700 |ddv_scf|^2 =  2.813E-05

      iter #   2 total cpu time :450308.2 secs   av.it.:   8.9
      thresh= 5.304E-04 alpha_mix =  0.700 |ddv_scf|^2 =  7.497E-05

      iter #   3 total cpu time :451111.5 secs   av.it.:   7.9
      thresh= 8.659E-04 alpha_mix =  0.700 |ddv_scf|^2 =  1.705E-07

      iter #   4 total cpu time :452002.4 secs   av.it.:   8.8
      thresh= 4.129E-05 alpha_mix =  0.700 |ddv_scf|^2 =  1.935E-08

      iter #   5 total cpu time :452884.0 secs   av.it.:   8.8
      thresh= 1.391E-05 alpha_mix =  0.700 |ddv_scf|^2 =  8.324E-10

      iter #   6 total cpu time :453759.7 secs   av.it.:   8.6
      thresh= 2.885E-06 alpha_mix =  0.700 |ddv_scf|^2 =  1.666E-12

      iter #   7 total cpu time :454620.9 secs   av.it.:   8.5
      thresh= 1.291E-07 alpha_mix =  0.700 |ddv_scf|^2 =  1.750E-13
