
     Program PWSCF v.7.5 starts on  5Jun2026 at  8:23:43 

     This program is part of the open-source Quantum ESPRESSO suite
     for quantum simulation of materials; please cite
         "P. Giannozzi et al., J. Phys.:Condens. Matter 21 395502 (2009);
         "P. Giannozzi et al., J. Phys.:Condens. Matter 29 465901 (2017);
         "P. Giannozzi et al., J. Chem. Phys. 152 154105 (2020);
          URL http://www.quantum-espresso.org", 
     in publications or presentations arising from this work. More details at
     http://www.quantum-espresso.org/quote

     Parallel version (MPI & OpenMP), running on       1 processor cores
     Number of MPI processes:                 1
     Threads/MPI process:                     1

     MPI processes distributed on     1 nodes
     15500 MiB available memory on the printing compute node when the environment starts

     Reading input from graphene_scf.in

     Current dimensions of program PWSCF are:
     Max number of different atomic species (ntypx) = 10
     Max number of k-points (npk) =  40000
     Max angular momentum in pseudopotentials (lmaxx) =  4
     Presently no symmetry can be used with electric field


     Subspace diagonalization in iterative solution of the eigenvalue problem:
     a serial algorithm will be used


     G-vector sticks info
     --------------------
     sticks:   dense  smooth     PW     G-vecs:    dense   smooth      PW
     Sum         595     241     85                35435     8973    1929

     Using Slab Decomposition



     bravais-lattice index     =            4
     lattice parameter (alat)  =       4.6540  a.u.
     unit-cell volume          =     261.8973 (a.u.)^3
     number of atoms/cell      =            2
     number of atomic types    =            1
     number of electrons       =         8.00
     number of Kohn-Sham states=            8
     kinetic-energy cutoff     =      40.0000  Ry
     charge density cutoff     =     400.0000  Ry
     scf convergence threshold =      1.0E-08
     mixing beta               =       0.7000
     number of iterations used =            8  plain     mixing
     Exchange-correlation= PBE
                           (   1   4   3   4   0   0   0)

     celldm(1)=   4.654000  celldm(2)=   0.000000  celldm(3)=   3.000000
     celldm(4)=   0.000000  celldm(5)=   0.000000  celldm(6)=   0.000000

     crystal axes: (cart. coord. in units of alat)
               a(1) = (   1.000000   0.000000   0.000000 )  
               a(2) = (  -0.500000   0.866025   0.000000 )  
               a(3) = (   0.000000   0.000000   3.000000 )  

     reciprocal axes: (cart. coord. in units 2 pi/alat)
               b(1) = (  1.000000  0.577350 -0.000000 )  
               b(2) = (  0.000000  1.154701  0.000000 )  
               b(3) = (  0.000000 -0.000000  0.333333 )  


     PseudoPot. # 1 for C  read from file:
     ./C.pbe-n-rrkjus_psl.1.0.0.UPF
     MD5 check sum: 1fdd950c42eb37d8afe3dd2f8d12311e
     Pseudo is Ultrasoft + core correction, Zval =  4.0
     Generated using &quot;atomic&quot; code by A. Dal Corso  v.6.3MaX
     Using radial grid of 1073 points,  4 beta functions with: 
                l(1) =   0
                l(2) =   0
                l(3) =   1
                l(4) =   1
     Q(r) pseudized with 0 coefficients 


     atomic species   valence    mass     pseudopotential
     C                 4.00    12.01070     C ( 1.00)

     No symmetry found



   Cartesian axes

     site n.     atom                  positions (alat units)
         1        C      tau(   1) = (   0.0000000   0.0000000   0.0000000  )
         2        C      tau(   2) = (   0.0000000   0.5773503   0.0000000  )

     number of k points=    41  Gaussian smearing, width (Ry)=  0.0100
                       cart. coord. in units 2pi/alat
        k(    1) = (   0.0000000   0.0000000   0.0000000), wk =   0.0246914
        k(    2) = (   0.0000000   0.1283001   0.0000000), wk =   0.0493827
        k(    3) = (   0.0000000   0.2566001   0.0000000), wk =   0.0493827
        k(    4) = (   0.0000000   0.3849002   0.0000000), wk =   0.0493827
        k(    5) = (   0.0000000   0.5132002   0.0000000), wk =   0.0493827
        k(    6) = (   0.1111111   0.0641500   0.0000000), wk =   0.0493827
        k(    7) = (   0.1111111   0.1924501   0.0000000), wk =   0.0493827
        k(    8) = (   0.1111111   0.3207501   0.0000000), wk =   0.0493827
        k(    9) = (   0.1111111   0.4490502   0.0000000), wk =   0.0493827
        k(   10) = (   0.1111111   0.5773503   0.0000000), wk =   0.0493827
        k(   11) = (   0.1111111  -0.4490502   0.0000000), wk =   0.0493827
        k(   12) = (   0.1111111  -0.3207501   0.0000000), wk =   0.0493827
        k(   13) = (   0.1111111  -0.1924501   0.0000000), wk =   0.0493827
        k(   14) = (   0.1111111  -0.0641500   0.0000000), wk =   0.0493827
        k(   15) = (   0.2222222   0.1283001   0.0000000), wk =   0.0493827
        k(   16) = (   0.2222222   0.2566001   0.0000000), wk =   0.0493827
        k(   17) = (   0.2222222   0.3849002   0.0000000), wk =   0.0493827
        k(   18) = (   0.2222222   0.5132002   0.0000000), wk =   0.0493827
        k(   19) = (   0.2222222   0.6415003   0.0000000), wk =   0.0493827
        k(   20) = (   0.2222222  -0.3849002   0.0000000), wk =   0.0493827
        k(   21) = (   0.2222222  -0.2566001   0.0000000), wk =   0.0493827
        k(   22) = (   0.2222222  -0.1283001   0.0000000), wk =   0.0493827
        k(   23) = (   0.2222222  -0.0000000   0.0000000), wk =   0.0493827
        k(   24) = (   0.3333333   0.1924501   0.0000000), wk =   0.0493827
        k(   25) = (   0.3333333   0.3207501   0.0000000), wk =   0.0493827
        k(   26) = (   0.3333333   0.4490502   0.0000000), wk =   0.0493827
        k(   27) = (   0.3333333   0.5773503   0.0000000), wk =   0.0493827
        k(   28) = (   0.3333333   0.7056503   0.0000000), wk =   0.0493827
        k(   29) = (   0.3333333  -0.3207501   0.0000000), wk =   0.0493827
        k(   30) = (   0.3333333  -0.1924501   0.0000000), wk =   0.0493827
        k(   31) = (   0.3333333  -0.0641500   0.0000000), wk =   0.0493827
        k(   32) = (   0.3333333   0.0641500   0.0000000), wk =   0.0493827
        k(   33) = (   0.4444444   0.2566001   0.0000000), wk =   0.0493827
        k(   34) = (   0.4444444   0.3849002   0.0000000), wk =   0.0493827
        k(   35) = (   0.4444444   0.5132002   0.0000000), wk =   0.0493827
        k(   36) = (   0.4444444   0.6415003   0.0000000), wk =   0.0493827
        k(   37) = (   0.4444444   0.7698004   0.0000000), wk =   0.0493827
        k(   38) = (   0.4444444  -0.2566001   0.0000000), wk =   0.0493827
        k(   39) = (   0.4444444  -0.1283001   0.0000000), wk =   0.0493827
        k(   40) = (   0.4444444   0.0000000   0.0000000), wk =   0.0493827
        k(   41) = (   0.4444444   0.1283001   0.0000000), wk =   0.0493827

     Dense  grid:    35435 G-vectors     FFT dimensions: (  30,  30,  90)

     Smooth grid:     8973 G-vectors     FFT dimensions: (  20,  20,  60)

     Estimated max dynamical RAM per process >      50.89 MB

     Check: negative core charge=   -0.000004

     Initial potential from superposition of free atoms

     starting charge       7.9999, renormalised to       8.0000

     Adding external electric field

     Computed dipole along edir(3) : 
        Dipole               -0.0125 Ry au,         -0.0318 Debye
        Dipole field         -0.0006 Ry au, 

        E field amplitude [Ha a.u.]:  5.8820E-05
        Potential amp.        0.0173 Ry
        Total length         13.1243 bohr

     Starting wfcs are    8 randomized atomic wfcs

     total cpu time spent up to now is        1.0 secs

     Self-consistent Calculation

     iteration #  1     ecut=    40.00 Ry     beta= 0.70
     Davidson diagonalization with overlap
     ethr =  1.00E-02,  avg # of iterations =  5.0

     Adding external electric field

     Computed dipole along edir(3) : 
        Dipole                0.0021 Ry au,          0.0054 Debye
        Dipole field          0.0001 Ry au, 

        E field amplitude [Ha a.u.]:  5.8820E-05
        Potential amp.       -0.0011 Ry
        Total length         13.1243 bohr


     total cpu time spent up to now is        1.4 secs

     total energy              =     -24.82587004 Ry
     estimated scf accuracy    <       0.19970017 Ry

     iteration #  2     ecut=    40.00 Ry     beta= 0.70
     Davidson diagonalization with overlap
     ethr =  2.50E-03,  avg # of iterations =  3.5

     negative rho (up, down):  8.857E-07 0.000E+00

     Adding external electric field

     Computed dipole along edir(3) : 
        Dipole               -0.0063 Ry au,         -0.0160 Debye
        Dipole field         -0.0003 Ry au, 

        E field amplitude [Ha a.u.]:  5.8820E-05
        Potential amp.        0.0095 Ry
        Total length         13.1243 bohr


     total cpu time spent up to now is        1.7 secs

     total energy              =     -24.85506633 Ry
     estimated scf accuracy    <       0.00236214 Ry

     iteration #  3     ecut=    40.00 Ry     beta= 0.70
     Davidson diagonalization with overlap
     ethr =  2.95E-05,  avg # of iterations =  6.9

     negative rho (up, down):  7.797E-06 0.000E+00

     Adding external electric field

     Computed dipole along edir(3) : 
        Dipole                0.0080 Ry au,          0.0203 Debye
        Dipole field          0.0004 Ry au, 

        E field amplitude [Ha a.u.]:  5.8820E-05
        Potential amp.       -0.0085 Ry
        Total length         13.1243 bohr


     total cpu time spent up to now is        2.1 secs

     total energy              =     -24.85527999 Ry
     estimated scf accuracy    <       0.00019523 Ry

     iteration #  4     ecut=    40.00 Ry     beta= 0.70
     Davidson diagonalization with overlap
     ethr =  2.44E-06,  avg # of iterations =  3.5

     negative rho (up, down):  9.010E-06 0.000E+00

     Adding external electric field

     Computed dipole along edir(3) : 
        Dipole               -0.0008 Ry au,         -0.0020 Debye
        Dipole field         -0.0000 Ry au, 

        E field amplitude [Ha a.u.]:  5.8820E-05
        Potential amp.        0.0025 Ry
        Total length         13.1243 bohr


     total cpu time spent up to now is        2.5 secs

     total energy              =     -24.85528556 Ry
     estimated scf accuracy    <       0.00011047 Ry

     iteration #  5     ecut=    40.00 Ry     beta= 0.70
     Davidson diagonalization with overlap
     ethr =  1.38E-06,  avg # of iterations =  2.2

     negative rho (up, down):  9.504E-06 0.000E+00

     Adding external electric field

     Computed dipole along edir(3) : 
        Dipole               -0.0006 Ry au,         -0.0014 Debye
        Dipole field         -0.0000 Ry au, 

        E field amplitude [Ha a.u.]:  5.8820E-05
        Potential amp.        0.0022 Ry
        Total length         13.1243 bohr


     total cpu time spent up to now is        2.8 secs

     total energy              =     -24.85530867 Ry
     estimated scf accuracy    <       0.00000028 Ry

     iteration #  6     ecut=    40.00 Ry     beta= 0.70
     Davidson diagonalization with overlap
     ethr =  3.51E-09,  avg # of iterations =  2.3

     negative rho (up, down):  9.566E-06 0.000E+00

     Adding external electric field

     Computed dipole along edir(3) : 
        Dipole               -0.0005 Ry au,         -0.0013 Debye
        Dipole field         -0.0000 Ry au, 

        E field amplitude [Ha a.u.]:  5.8820E-05
        Potential amp.        0.0022 Ry
        Total length         13.1243 bohr


     total cpu time spent up to now is        3.1 secs

     total energy              =     -24.85530879 Ry
     estimated scf accuracy    <       0.00000001 Ry

     iteration #  7     ecut=    40.00 Ry     beta= 0.70
     Davidson diagonalization with overlap
     ethr =  1.52E-10,  avg # of iterations =  2.2

     negative rho (up, down):  9.554E-06 0.000E+00

     Adding external electric field

     Computed dipole along edir(3) : 
        Dipole               -0.0006 Ry au,         -0.0015 Debye
        Dipole field         -0.0000 Ry au, 

        E field amplitude [Ha a.u.]:  5.8820E-05
        Potential amp.        0.0023 Ry
        Total length         13.1243 bohr


     total cpu time spent up to now is        3.4 secs

     End of self-consistent calculation

          k = 0.0000 0.0000 0.0000 (  1133 PWs)   bands (ev):

   -18.6497  -6.7470  -2.1664  -2.1664   3.7453   7.1152   9.2559   9.2559

          k = 0.0000 0.1283 0.0000 (  1120 PWs)   bands (ev):

   -18.3582  -6.3980  -3.2810  -2.7404   4.1431   7.4950   9.2834   9.8248

          k = 0.0000 0.2566 0.0000 (  1114 PWs)   bands (ev):

   -17.4896  -5.8304  -5.3690  -3.8987   5.3358   8.5269   9.0293   9.0834

          k = 0.0000 0.3849 0.0000 (  1118 PWs)   bands (ev):

   -16.0646  -8.7614  -4.9223  -3.7410   5.8323   7.3136   8.6709  10.5151

          k = 0.0000 0.5132 0.0000 (  1128 PWs)   bands (ev):

   -14.1587 -11.5076  -5.4879  -1.8938   3.1279   8.3743  10.0827  12.9577

          k = 0.1111 0.0642 0.0000 (  1120 PWs)   bands (ev):

   -18.3582  -6.3980  -3.2810  -2.7404   4.1431   7.4950   9.2834   9.8247

          k = 0.1111 0.1925 0.0000 (  1133 PWs)   bands (ev):

   -17.7782  -5.7084  -4.8373  -3.8877   4.9390   8.2459   9.7182   9.8700

          k = 0.1111 0.3208 0.0000 (  1124 PWs)   bands (ev):

   -16.6313  -7.2870  -5.2737  -4.3701   6.5273   7.0909   9.7220  10.0512

          k = 0.1111 0.4491 0.0000 (  1117 PWs)   bands (ev):

   -14.9550 -10.0477  -6.1558  -2.5389   4.2350   8.8881   9.7350  11.7775

          k = 0.1111 0.5774 0.0000 (  1114 PWs)   bands (ev):

   -13.2096 -12.1944  -6.4561  -1.2005   2.5083   9.5721  11.9222  12.0758

          k = 0.1111-0.4491 0.0000 (  1117 PWs)   bands (ev):

   -14.9550 -10.0477  -6.1558  -2.5389   4.2350   8.8881   9.7350  11.7775

          k = 0.1111-0.3208 0.0000 (  1124 PWs)   bands (ev):

   -16.6313  -7.2870  -5.2737  -4.3701   6.5273   7.0909   9.7220  10.0512

          k = 0.1111-0.1925 0.0000 (  1133 PWs)   bands (ev):

   -17.7782  -5.7084  -4.8373  -3.8877   4.9390   8.2459   9.7182   9.8700

          k = 0.1111-0.0642 0.0000 (  1120 PWs)   bands (ev):

   -18.3582  -6.3980  -3.2810  -2.7404   4.1431   7.4950   9.2834   9.8247

          k = 0.2222 0.1283 0.0000 (  1114 PWs)   bands (ev):

   -17.4896  -5.8305  -5.3690  -3.8987   5.3358   8.5269   9.0293   9.0834

          k = 0.2222 0.2566 0.0000 (  1124 PWs)   bands (ev):

   -16.6313  -7.2870  -5.2737  -4.3701   6.5273   7.0909   9.7220  10.0512

          k = 0.2222 0.3849 0.0000 (  1105 PWs)   bands (ev):

   -15.2304  -8.8019  -7.2888  -2.7848   4.8623   8.5018  11.2493  12.3490

          k = 0.2222 0.5132 0.0000 (  1110 PWs)   bands (ev):

   -13.3799 -10.9172  -8.2883  -0.9054   2.6194  11.2068  12.1612  12.4356

          k = 0.2222 0.6415 0.0000 (  1110 PWs)   bands (ev):

   -13.3799 -10.9172  -8.2883  -0.9054   2.6194  11.2068  12.1611  12.4356

          k = 0.2222-0.3849 0.0000 (  1105 PWs)   bands (ev):

   -15.2304  -8.8019  -7.2888  -2.7848   4.8623   8.5018  11.2493  12.3490

          k = 0.2222-0.2566 0.0000 (  1124 PWs)   bands (ev):

   -16.6313  -7.2870  -5.2737  -4.3701   6.5273   7.0909   9.7220  10.0512

          k = 0.2222-0.1283 0.0000 (  1114 PWs)   bands (ev):

   -17.4896  -5.8304  -5.3690  -3.8987   5.3358   8.5270   9.0293   9.0834

          k = 0.2222-0.0000 0.0000 (  1133 PWs)   bands (ev):

   -17.7782  -5.7084  -4.8373  -3.8877   4.9390   8.2459   9.7182   9.8700

          k = 0.3333 0.1925 0.0000 (  1118 PWs)   bands (ev):

   -16.0646  -8.7614  -4.9223  -3.7410   5.8323   7.3136   8.6709  10.5151

          k = 0.3333 0.3208 0.0000 (  1117 PWs)   bands (ev):

   -14.9550 -10.0478  -6.1557  -2.5389   4.2350   8.8881   9.7350  11.7775

          k = 0.3333 0.4491 0.0000 (  1110 PWs)   bands (ev):

   -13.3799 -10.9172  -8.2883  -0.9054   2.6194  11.2068  12.1611  12.4356

          k = 0.3333 0.5774 0.0000 (  1137 PWs)   bands (ev):

   -11.7194 -11.7193  -9.7103   0.9019   0.9021  11.5934  13.6286  13.6286

          k = 0.3333 0.7057 0.0000 (  1110 PWs)   bands (ev):

   -13.3799 -10.9172  -8.2883  -0.9054   2.6194  11.2068  12.1611  12.4356

          k = 0.3333-0.3208 0.0000 (  1117 PWs)   bands (ev):

   -14.9550 -10.0477  -6.1557  -2.5389   4.2350   8.8881   9.7350  11.7775

          k = 0.3333-0.1925 0.0000 (  1118 PWs)   bands (ev):

   -16.0646  -8.7614  -4.9223  -3.7410   5.8323   7.3136   8.6709  10.5151

          k = 0.3333-0.0642 0.0000 (  1124 PWs)   bands (ev):

   -16.6313  -7.2870  -5.2737  -4.3701   6.5273   7.0909   9.7220  10.0512

          k = 0.3333 0.0642 0.0000 (  1124 PWs)   bands (ev):

   -16.6313  -7.2870  -5.2737  -4.3701   6.5273   7.0909   9.7220  10.0512

          k = 0.4444 0.2566 0.0000 (  1128 PWs)   bands (ev):

   -14.1587 -11.5076  -5.4879  -1.8938   3.1279   8.3743  10.0827  12.9577

          k = 0.4444 0.3849 0.0000 (  1114 PWs)   bands (ev):

   -13.2096 -12.1944  -6.4561  -1.2005   2.5083   9.5721  11.9222  12.0758

          k = 0.4444 0.5132 0.0000 (  1110 PWs)   bands (ev):

   -13.3799 -10.9172  -8.2883  -0.9054   2.6194  11.2068  12.1611  12.4356

          k = 0.4444 0.6415 0.0000 (  1110 PWs)   bands (ev):

   -13.3799 -10.9172  -8.2883  -0.9054   2.6194  11.2068  12.1612  12.4356

          k = 0.4444 0.7698 0.0000 (  1114 PWs)   bands (ev):

   -13.2096 -12.1944  -6.4561  -1.2005   2.5083   9.5721  11.9222  12.0758

          k = 0.4444-0.2566 0.0000 (  1128 PWs)   bands (ev):

   -14.1587 -11.5076  -5.4879  -1.8938   3.1279   8.3743  10.0827  12.9578

          k = 0.4444-0.1283 0.0000 (  1117 PWs)   bands (ev):

   -14.9550 -10.0477  -6.1557  -2.5389   4.2350   8.8881   9.7350  11.7775

          k = 0.4444 0.0000 0.0000 (  1105 PWs)   bands (ev):

   -15.2304  -8.8019  -7.2888  -2.7848   4.8623   8.5018  11.2493  12.3490

          k = 0.4444 0.1283 0.0000 (  1117 PWs)   bands (ev):

   -14.9550 -10.0477  -6.1557  -2.5389   4.2350   8.8881   9.7350  11.7775

     the Fermi energy is     0.9020 ev

!    total energy              =     -24.85530880 Ry
     estimated scf accuracy    <          2.7E-09 Ry
     smearing contrib. (-TS)   =      -0.00027861 Ry
     internal energy E=F+TS    =     -24.85503018 Ry

     The total energy is F=E-TS. E is the sum of the following terms:
     one-electron contribution =     -56.25778587 Ry
     hartree contribution      =      30.37340362 Ry
     xc contribution           =      -9.28129761 Ry
     ewald contribution        =      10.31064959 Ry
     electric field correction =       0.00000008 Ry

     convergence has been achieved in   7 iterations

     Writing all to output data dir ./temp/graphene.save/ :
     XML data file, charge density, pseudopotentials, collected wavefunctions

     init_run     :      0.93s CPU      0.97s WALL (       1 calls)
     electrons    :      2.26s CPU      2.36s WALL (       1 calls)

     Called by init_run:
     wfcinit      :      0.25s CPU      0.25s WALL (       1 calls)
     potinit      :      0.29s CPU      0.30s WALL (       1 calls)
     hinit0       :      0.36s CPU      0.37s WALL (       1 calls)

     Called by electrons:
     c_bands      :      1.56s CPU      1.63s WALL (       7 calls)
     sum_band     :      0.36s CPU      0.39s WALL (       7 calls)
     v_of_rho     :      0.21s CPU      0.22s WALL (       8 calls)
     newd         :      0.13s CPU      0.15s WALL (       8 calls)
     mix_rho      :      0.03s CPU      0.03s WALL (       7 calls)

     Called by c_bands:
     init_us_2    :      0.08s CPU      0.09s WALL (     615 calls)
     cegterg      :      1.47s CPU      1.53s WALL (     287 calls)

     Called by *egterg:
     cdiaghg      :      0.07s CPU      0.08s WALL (    1331 calls)
     h_psi        :      1.37s CPU      1.42s WALL (    1372 calls)
     s_psi        :      0.04s CPU      0.04s WALL (    1372 calls)
     g_psi        :      0.02s CPU      0.02s WALL (    1044 calls)

     Called by h_psi:
     h_psi:calbec :      0.04s CPU      0.04s WALL (    1372 calls)
     vloc_psi     :      1.28s CPU      1.32s WALL (    1372 calls)
                                        0.00s GPU  (    1372 calls)
     add_vuspsi   :      0.04s CPU      0.04s WALL (    1372 calls)

     General routines
     calbec       :      0.05s CPU      0.05s WALL (    1659 calls)
     fft          :      0.29s CPU      0.29s WALL (     102 calls)
     ffts         :      0.24s CPU      0.24s WALL (      15 calls)
     fftw         :      1.19s CPU      1.23s WALL (   15964 calls)
     interpolate  :      0.24s CPU      0.24s WALL (       8 calls)

     Parallel routines

     PWSCF        :      3.23s CPU      3.39s WALL


   This run was terminated on:   8:23:46   5Jun2026            

=------------------------------------------------------------------------------=
   JOB DONE.
=------------------------------------------------------------------------------=
